          AutoDock 4.2 Release 4.2.6   
         (C) 1989-2012 The Scripps Research Institute
        AutoDock comes with ABSOLUTELY NO WARRANTY.
        AutoDock is free software, and you are welcome
        to redistribute it under certain conditions;
        for details type 'autodock4 -C'

                     main.cc  $Revision: 1.213 $

                   Compiled on Jul 18 2014 at 15:34:58


This file was created at:			5:37 54" p.m., 10/02/2025
                   on host:		"ACER"
Current Working Directory = "D:\Protein_go_brrr\autodock\final\mut_D99N\IHP"

      ________________________________________________________________

                   SETTING UP DEFAULT PARAMETER LIBRARY
      ________________________________________________________________


Random number generator was seeded with values 152536, 1759419474.
Docking parameter file (DPF) used for this docking:		D:/Protein_go_brrr/autodock/final/mut_D99N/IHP/dock.dpf
DPF> autodock_parameter_version 4.2       # used by autodock to validate parameter set

	Autodock parameter version 4.2.
DPF> outlev 1                             # diagnostic output level

Output Level = 1  ADT-COMPATIBLE OUTPUT DURING DOCKING.
DPF> intelec                              # calculate internal electrostatics

Electrostatic energies will be calculated for all non-bonds between moving atoms.
DPF> seed pid time                        # seeds for random generator

Random number generator was seeded with values 152536, 1759419474.
DPF> ligand_types P C HD OA               # atoms types in ligand

DPF> fld mut_D99N_m0.maps.fld             # grid_data_file

Opening Grid Map Dimensions file:		mut_D99N_m0.maps.fld
Grid Point Spacing =				0.447 Angstroms

Even Number of User-specified Grid Points =	126 x-points
						126 y-points
						126 z-points

Coordinates of Central Grid Point of Maps =	(-0.119, -0.072, -0.886)
Macromolecule file used to create Grid Maps =	mut_D99N_m0.pdbqt
Grid Parameter file used to create Grid Maps =	D:/Protein_go_brrr/autodock/final/mut_D99N/IHP/grid.gpf
Minimum coordinates in grid = (-28.280, -28.233, -29.047)
Maximum coordinates in grid = (28.042, 28.089, 27.275)

DPF> map mut_D99N_m0.P.map                # atom-specific affinity map

DPF> map mut_D99N_m0.C.map                # atom-specific affinity map

DPF> map mut_D99N_m0.HD.map               # atom-specific affinity map

DPF> map mut_D99N_m0.OA.map               # atom-specific affinity map

DPF> elecmap mut_D99N_m0.e.map            # electrostatics map

DPF> desolvmap mut_D99N_m0.d.map          # desolvation map

DPF> move IHP_ideal_opt.pdbqt             # small molecule

1,4-interactions will be _ignored_ in the non-bonded internal energy calculation.

Ligand PDBQT file = "IHP_ideal_opt.pdbqt"

INPUT LIGAND PDBQT FILE:
________________________

INPUT-LIGAND-PDBQT: REMARK  24 active torsions:
INPUT-LIGAND-PDBQT: REMARK  status: ('A' for Active; 'I' for Inactive)
INPUT-LIGAND-PDBQT: REMARK    1  A    between atoms: C_1  and  O_7 
INPUT-LIGAND-PDBQT: REMARK    2  A    between atoms: C_2  and  O_12 
INPUT-LIGAND-PDBQT: REMARK    3  A    between atoms: C_3  and  O_17 
INPUT-LIGAND-PDBQT: REMARK    4  A    between atoms: C_4  and  O_22 
INPUT-LIGAND-PDBQT: REMARK    5  A    between atoms: C_5  and  O_27 
INPUT-LIGAND-PDBQT: REMARK    6  A    between atoms: C_6  and  O_32 
INPUT-LIGAND-PDBQT: REMARK    7  A    between atoms: O_7  and  P_8 
INPUT-LIGAND-PDBQT: REMARK    8  A    between atoms: P_8  and  O_10 
INPUT-LIGAND-PDBQT: REMARK    9  A    between atoms: P_8  and  O_11 
INPUT-LIGAND-PDBQT: REMARK   10  A    between atoms: O_12  and  P_13 
INPUT-LIGAND-PDBQT: REMARK   11  A    between atoms: P_13  and  O_15 
INPUT-LIGAND-PDBQT: REMARK   12  A    between atoms: P_13  and  O_16 
INPUT-LIGAND-PDBQT: REMARK   13  A    between atoms: O_17  and  P_18 
INPUT-LIGAND-PDBQT: REMARK   14  A    between atoms: P_18  and  O_20 
INPUT-LIGAND-PDBQT: REMARK   15  A    between atoms: P_18  and  O_21 
INPUT-LIGAND-PDBQT: REMARK   16  A    between atoms: O_22  and  P_23 
INPUT-LIGAND-PDBQT: REMARK   17  A    between atoms: P_23  and  O_25 
INPUT-LIGAND-PDBQT: REMARK   18  A    between atoms: P_23  and  O_26 
INPUT-LIGAND-PDBQT: REMARK   19  A    between atoms: O_27  and  P_28 
INPUT-LIGAND-PDBQT: REMARK   20  A    between atoms: P_28  and  O_30 
INPUT-LIGAND-PDBQT: REMARK   21  A    between atoms: P_28  and  O_31 
INPUT-LIGAND-PDBQT: REMARK   22  A    between atoms: O_32  and  P_33 
INPUT-LIGAND-PDBQT: REMARK   23  A    between atoms: P_33  and  O_35 
INPUT-LIGAND-PDBQT: REMARK   24  A    between atoms: P_33  and  O_36 
INPUT-LIGAND-PDBQT: ROOT
INPUT-LIGAND-PDBQT: ATOM      1  C   UNL d   1       1.288  -0.806   0.726  0.00  0.00     0.194 C 
INPUT-LIGAND-PDBQT: ATOM      2  C   UNL d   1       0.040  -1.610   0.357  0.00  0.00     0.194 C 
INPUT-LIGAND-PDBQT: ATOM      3  C   UNL d   1      -1.244  -0.840   0.673  0.00  0.00     0.194 C 
INPUT-LIGAND-PDBQT: ATOM      4  C   UNL d   1      -1.265   0.565   0.076  0.00  0.00     0.194 C 
INPUT-LIGAND-PDBQT: ATOM      5  C   UNL d   1       0.009   1.363   0.322  0.00  0.00     0.194 C 
INPUT-LIGAND-PDBQT: ATOM      6  C   UNL d   1       1.294   0.573   0.065  0.00  0.00     0.194 C 
INPUT-LIGAND-PDBQT: ENDROOT
INPUT-LIGAND-PDBQT: BRANCH   1   7
INPUT-LIGAND-PDBQT: ATOM      7  O   UNL d   1       2.433  -1.514   0.245  0.00  0.00    -0.278 OA
INPUT-LIGAND-PDBQT: BRANCH   7   8
INPUT-LIGAND-PDBQT: ATOM      8  P   UNL d   1       3.563  -1.932   1.294  0.00  0.00     0.473 P 
INPUT-LIGAND-PDBQT: ATOM      9  O   UNL d   1       3.071  -2.662   2.494  0.00  0.00    -0.228 OA
INPUT-LIGAND-PDBQT: BRANCH   8  10
INPUT-LIGAND-PDBQT: ATOM     10  O   UNL d   1       4.602  -2.777   0.427  0.00  0.00    -0.303 OA
INPUT-LIGAND-PDBQT: ATOM     11  H   UNL d   1       5.122  -3.357   1.014  0.00  0.00     0.222 HD
INPUT-LIGAND-PDBQT: ENDBRANCH   8  10
INPUT-LIGAND-PDBQT: BRANCH   8  12
INPUT-LIGAND-PDBQT: ATOM     12  O   UNL d   1       4.376  -0.597   1.579  0.00  0.00    -0.303 OA
INPUT-LIGAND-PDBQT: ATOM     13  H   UNL d   1       4.592  -0.095   0.761  0.00  0.00     0.222 HD
INPUT-LIGAND-PDBQT: ENDBRANCH   8  12
INPUT-LIGAND-PDBQT: ENDBRANCH   7   8
INPUT-LIGAND-PDBQT: ENDBRANCH   1   7
INPUT-LIGAND-PDBQT: BRANCH   2  14
INPUT-LIGAND-PDBQT: ATOM     14  O   UNL d   1       0.067  -1.896  -1.047  0.00  0.00    -0.278 OA
INPUT-LIGAND-PDBQT: BRANCH  14  15
INPUT-LIGAND-PDBQT: ATOM     15  P   UNL d   1      -0.217  -3.413  -1.474  0.00  0.00     0.473 P 
INPUT-LIGAND-PDBQT: ATOM     16  O   UNL d   1      -1.497  -4.019  -0.990  0.00  0.00    -0.228 OA
INPUT-LIGAND-PDBQT: BRANCH  15  17
INPUT-LIGAND-PDBQT: ATOM     17  O   UNL d   1      -0.104  -3.396  -3.063  0.00  0.00    -0.303 OA
INPUT-LIGAND-PDBQT: ATOM     18  H   UNL d   1      -0.983  -3.299  -3.477  0.00  0.00     0.222 HD
INPUT-LIGAND-PDBQT: ENDBRANCH  15  17
INPUT-LIGAND-PDBQT: BRANCH  15  19
INPUT-LIGAND-PDBQT: ATOM     19  O   UNL d   1       1.108  -4.194  -1.068  0.00  0.00    -0.303 OA
INPUT-LIGAND-PDBQT: ATOM     20  H   UNL d   1       1.891  -3.839  -1.528  0.00  0.00     0.222 HD
INPUT-LIGAND-PDBQT: ENDBRANCH  15  19
INPUT-LIGAND-PDBQT: ENDBRANCH  14  15
INPUT-LIGAND-PDBQT: ENDBRANCH   2  14
INPUT-LIGAND-PDBQT: BRANCH   6  21
INPUT-LIGAND-PDBQT: ATOM     21  O   UNL d   1       2.359   1.315   0.655  0.00  0.00    -0.278 OA
INPUT-LIGAND-PDBQT: BRANCH  21  22
INPUT-LIGAND-PDBQT: ATOM     22  P   UNL d   1       3.322   2.189  -0.269  0.00  0.00     0.473 P 
INPUT-LIGAND-PDBQT: ATOM     23  O   UNL d   1       2.760   2.769  -1.523  0.00  0.00    -0.228 OA
INPUT-LIGAND-PDBQT: BRANCH  22  24
INPUT-LIGAND-PDBQT: ATOM     24  O   UNL d   1       3.885   3.258   0.767  0.00  0.00    -0.303 OA
INPUT-LIGAND-PDBQT: ATOM     25  H   UNL d   1       3.131   3.831   1.059  0.00  0.00     0.222 HD
INPUT-LIGAND-PDBQT: ENDBRANCH  22  24
INPUT-LIGAND-PDBQT: BRANCH  22  26
INPUT-LIGAND-PDBQT: ATOM     26  O   UNL d   1       4.578   1.209  -0.449  0.00  0.00    -0.303 OA
INPUT-LIGAND-PDBQT: ATOM     27  H   UNL d   1       5.288   1.681  -0.930  0.00  0.00     0.222 HD
INPUT-LIGAND-PDBQT: ENDBRANCH  22  26
INPUT-LIGAND-PDBQT: ENDBRANCH  21  22
INPUT-LIGAND-PDBQT: ENDBRANCH   6  21
INPUT-LIGAND-PDBQT: BRANCH   3  28
INPUT-LIGAND-PDBQT: ATOM     28  O   UNL d   1      -2.321  -1.530   0.052  0.00  0.00    -0.278 OA
INPUT-LIGAND-PDBQT: BRANCH  28  29
INPUT-LIGAND-PDBQT: ATOM     29  P   UNL d   1      -3.402  -2.296   0.936  0.00  0.00     0.473 P 
INPUT-LIGAND-PDBQT: ATOM     30  O   UNL d   1      -2.932  -2.753   2.269  0.00  0.00    -0.228 OA
INPUT-LIGAND-PDBQT: BRANCH  29  31
INPUT-LIGAND-PDBQT: ATOM     31  O   UNL d   1      -4.591  -1.225   0.913  0.00  0.00    -0.303 OA
INPUT-LIGAND-PDBQT: ATOM     32  H   UNL d   1      -4.772  -0.977  -0.023  0.00  0.00     0.222 HD
INPUT-LIGAND-PDBQT: ENDBRANCH  29  31
INPUT-LIGAND-PDBQT: BRANCH  29  33
INPUT-LIGAND-PDBQT: ATOM     33  O   UNL d   1      -3.920  -3.418  -0.068  0.00  0.00    -0.303 OA
INPUT-LIGAND-PDBQT: ATOM     34  H   UNL d   1      -3.155  -3.980  -0.344  0.00  0.00     0.222 HD
INPUT-LIGAND-PDBQT: ENDBRANCH  29  33
INPUT-LIGAND-PDBQT: ENDBRANCH  28  29
INPUT-LIGAND-PDBQT: ENDBRANCH   3  28
INPUT-LIGAND-PDBQT: BRANCH   5  35
INPUT-LIGAND-PDBQT: ATOM     35  O   UNL d   1      -0.019   2.436  -0.617  0.00  0.00    -0.278 OA
INPUT-LIGAND-PDBQT: BRANCH  35  36
INPUT-LIGAND-PDBQT: ATOM     36  P   UNL d   1       0.242   3.934  -0.135  0.00  0.00     0.473 P 
INPUT-LIGAND-PDBQT: ATOM     37  O   UNL d   1       1.386   4.117   0.811  0.00  0.00    -0.228 OA
INPUT-LIGAND-PDBQT: BRANCH  36  38
INPUT-LIGAND-PDBQT: ATOM     38  O   UNL d   1       0.411   4.698  -1.522  0.00  0.00    -0.303 OA
INPUT-LIGAND-PDBQT: ATOM     39  H   UNL d   1       1.257   4.425  -1.938  0.00  0.00     0.222 HD
INPUT-LIGAND-PDBQT: ENDBRANCH  36  38
INPUT-LIGAND-PDBQT: BRANCH  36  40
INPUT-LIGAND-PDBQT: ATOM     40  O   UNL d   1      -1.196   4.382   0.376  0.00  0.00    -0.303 OA
INPUT-LIGAND-PDBQT: ATOM     41  H   UNL d   1      -1.909   4.073  -0.226  0.00  0.00     0.222 HD
INPUT-LIGAND-PDBQT: ENDBRANCH  36  40
INPUT-LIGAND-PDBQT: ENDBRANCH  35  36
INPUT-LIGAND-PDBQT: ENDBRANCH   5  35
INPUT-LIGAND-PDBQT: BRANCH   4  42
INPUT-LIGAND-PDBQT: ATOM     42  O   UNL d   1      -2.334   1.271   0.715  0.00  0.00    -0.278 OA
INPUT-LIGAND-PDBQT: BRANCH  42  43
INPUT-LIGAND-PDBQT: ATOM     43  P   UNL d   1      -3.625   1.654  -0.140  0.00  0.00     0.473 P 
INPUT-LIGAND-PDBQT: ATOM     44  O   UNL d   1      -4.208   0.598  -1.014  0.00  0.00    -0.228 OA
INPUT-LIGAND-PDBQT: BRANCH  43  45
INPUT-LIGAND-PDBQT: ATOM     45  O   UNL d   1      -4.625   2.208   0.967  0.00  0.00    -0.303 OA
INPUT-LIGAND-PDBQT: ATOM     46  H   UNL d   1      -4.983   1.485   1.520  0.00  0.00     0.222 HD
INPUT-LIGAND-PDBQT: ENDBRANCH  43  45
INPUT-LIGAND-PDBQT: BRANCH  43  47
INPUT-LIGAND-PDBQT: ATOM     47  O   UNL d   1      -3.184   3.003  -0.885  0.00  0.00    -0.303 OA
INPUT-LIGAND-PDBQT: ATOM     48  H   UNL d   1      -3.918   3.311  -1.456  0.00  0.00     0.222 HD
INPUT-LIGAND-PDBQT: ENDBRANCH  43  47
INPUT-LIGAND-PDBQT: ENDBRANCH  42  43
INPUT-LIGAND-PDBQT: ENDBRANCH   4  42
INPUT-LIGAND-PDBQT: TORSDOF 24
________________________________________________________________________________

Total charge on ligand                               =	-0.006 e
REMARK  24 active torsions:
REMARK  status: ('A' for Active; 'I' for Inactive)
REMARK    1  A    between atoms: C_1  and  O_7 
REMARK    2  A    between atoms: C_2  and  O_12 
REMARK    3  A    between atoms: C_3  and  O_17 
REMARK    4  A    between atoms: C_4  and  O_22 
REMARK    5  A    between atoms: C_5  and  O_27 
REMARK    6  A    between atoms: C_6  and  O_32 
REMARK    7  A    between atoms: O_7  and  P_8 
REMARK    8  A    between atoms: P_8  and  O_10 
REMARK    9  A    between atoms: P_8  and  O_11 
REMARK   10  A    between atoms: O_12  and  P_13 
REMARK   11  A    between atoms: P_13  and  O_15 
REMARK   12  A    between atoms: P_13  and  O_16 
REMARK   13  A    between atoms: O_17  and  P_18 
REMARK   14  A    between atoms: P_18  and  O_20 
REMARK   15  A    between atoms: P_18  and  O_21 
REMARK   16  A    between atoms: O_22  and  P_23 
REMARK   17  A    between atoms: P_23  and  O_25 
REMARK   18  A    between atoms: P_23  and  O_26 
REMARK   19  A    between atoms: O_27  and  P_28 
REMARK   20  A    between atoms: P_28  and  O_30 
REMARK   21  A    between atoms: P_28  and  O_31 
REMARK   22  A    between atoms: O_32  and  P_33 
REMARK   23  A    between atoms: P_33  and  O_35 
REMARK   24  A    between atoms: P_33  and  O_36 


Number of Rotatable Bonds in Small Molecule =	24 torsions
Number of atoms in ligand:  48

Number of non-hydrogen atoms in ligand:  36

Number of vibrational degrees of freedom of ligand:  138


Number of torsional degrees of freedom = 24
Estimated loss of torsional free energy upon binding = +7.1592 kcal/mol


DPF> about 0.035 0.082 -0.065            # small molecule center

Small molecule center of rotation =	(+0.035, +0.082, -0.065)

DPF> tran0 random                         # initial coordinates/A or random

Initial translation =			(-20.073, 3.700, 13.180) Angstroms
DPF> quaternion0 random                   # initial orientation

Each run will begin with a new, random initial orientation.
Initial quaternion,  (x,y,z,w) =	( 0.586, -0.733, -0.335, 0.089 ),
DPF> dihe0 random                         # initial dihedrals (relative) or random

DPF> torsdof 24                            # torsional degrees of freedom

Number of torsional degrees of freedom = 24
Free energy coefficient for torsional degrees of freedom = 0.2983, the factory default value.

Estimated loss of torsional free energy upon binding = +7.1592 kcal/mol

DPF> rmstol 2.0                           # cluster_tolerance/A

Maximum RMS tolerance for conformational cluster analysis = 2.00 Angstroms
DPF> extnrg 1000.0                        # external grid energy

External grid energy (beyond grid map walls) = 1000.00

DPF> e0max 0.0 10000                      # max initial energy; max number of retries

Using user-specified maximum number of retries for simanneal initialization, 10000 retries.
If the simanneal initial energy is greater than e0max, 0.000,
then a new, random initial state will be created.

DPF> ga_pop_size 150                      # number of individuals in population

A population of 150 individuals will be used
DPF> ga_num_evals 25000000                # maximum number of energy evaluations

There will be at most 25000000 function evaluations used.
DPF> ga_num_generations 27000             # maximum number of generations

The GA will run for at most 27000 generations.
DPF> ga_elitism 1                         # number of top individuals to survive to next generation

The 1 best will be preserved each GA generation.
DPF> ga_mutation_rate 0.02                # rate of gene mutation

The mutation rate is 0.020000.
DPF> ga_crossover_rate 0.8                # rate of crossover

The crossover rate is 0.800000.
DPF> ga_window_size 10                    # 

The GA's selection window is 10 generations.
DPF> ga_cauchy_alpha 0.0                  # Alpha parameter of Cauchy distribution

The alpha parameter (for the Cauchy distribution) is being set to 0.000000.
DPF> ga_cauchy_beta 1.0                   # Beta parameter Cauchy distribution

The beta parameter (for the Cauchy distribution) is being set to 1.000000.
DPF> set_ga                               # set the above parameters for GA or LGA

DPF> sw_max_its 300                       # iterations of Solis & Wets local search

Solis & Wets algorithms will perform at most 300 iterations.
DPF> sw_max_succ 4                        # consecutive successes before changing rho

Solis & Wets algorithms expand rho every 4 in a row successes.
DPF> sw_max_fail 4                        # consecutive failures before changing rho

Solis & Wets algorithms contract rho every 4 in a row failures.
DPF> sw_rho 1.0                           # size of local search space to sample

rho is set to 1.000000.
DPF> sw_lb_rho 0.01                       # lower bound on rho

rho will never get smaller than 0.010000.
DPF> ls_search_freq 0.06                  # probability of performing local search on individual

Local search will be performed with frequency 0.060000.
DPF> set_psw1                             # set the above pseudo-Solis & Wets parameters

Creating a new Local Search object using the pseudo-Solis-Wets algorithm (pSW1) with the current settings.

DPF> unbound_model bound                  # state of unbound ligand

DPF> ga_run 100                           # do this many hybrid GA-LS runs

centering ligand on specified point: 0.035 0.082 -0.065
Furthest true ligand atom from "about" center is 6.234 Angstroms (maxrad).
Number of requested GA dockings = 100 runs
Unbound model to be used is 'same as bound' [AutoDock 4.2 default].

	BEGINNING GENETIC ALGORITHM DOCKING 1 of 100
Run: 1 Seed: 789818540 1344838724 [ Run 1 of 100 GA/GALS ]
Beginning LAMARCKIAN GENETIC ALGORITHM (LGA), with a maximum of 25000000 energy evaluations.

Final-Value: -17.124


	FINAL GENETIC ALGORITHM DOCKED STATE
	_______________________________________________


Detailed state:  trans 14.165 4.874 -1.931 quatxyzw -0.693016 0.133494 -0.076039 0.704362 center 0.035 0.082 -0.065 ntor 24 55.0033 38.9245 24.3696 25.2987 90.9480 -137.1800 -126.1543 -27.2237 22.4329 -156.8057 42.1196 137.1849 -158.2946 -161.7311 -92.7174 48.5686 -66.7263 179.8992 22.6013 -36.2561 164.0864 -30.1895 -166.8342 17.1184
State:	 14.165   4.874  -1.931  -0.976  0.188 -0.107 90.444     55.00   38.92   24.37   25.30   90.95 -137.18 -126.15  -27.22   22.43 -156.81   42.12  137.18 -158.29 -161.73  -92.72   48.57  -66.73  179.90   22.60  -36.26  164.09  -30.19 -166.83   17.12

DOCKED: MODEL        1
DOCKED: USER    Run = 1
DOCKED: USER    DPF = D:/Protein_go_brrr/autodock/final/mut_D99N/IHP/dock.dpf
DOCKED: USER  
DOCKED: USER    Estimated Free Energy of Binding    =   +3.42 kcal/mol  [=(1)+(2)+(3)-(4)]
DOCKED: USER    
DOCKED: USER    (1) Final Intermolecular Energy     =   -3.74 kcal/mol
DOCKED: USER        vdW + Hbond + desolv Energy     =   -3.67 kcal/mol
DOCKED: USER        Electrostatic Energy            =   -0.07 kcal/mol
DOCKED: USER    (2) Final Total Internal Energy     =  -13.39 kcal/mol
DOCKED: USER    (3) Torsional Free Energy           =   +7.16 kcal/mol
DOCKED: USER    (4) Unbound System's Energy  [=(2)] =  -13.39 kcal/mol
DOCKED: USER    
DOCKED: USER    
DOCKED: USER    NEWDPF move IHP_ideal_opt.pdbqt
DOCKED: USER    NEWDPF about 0.035000 0.082000 -0.065000
DOCKED: USER    NEWDPF tran0 14.164982 4.874481 -1.931203
DOCKED: USER    NEWDPF quaternion0 -0.693016 0.133494 -0.076039 0.704362
DOCKED: USER    NEWDPF axisangle0 -0.976298 0.188062 -0.107121 90.443983
DOCKED: USER    NEWDPF quat0 -0.976298 0.188062 -0.107121 90.443983
DOCKED: USER    NEWDPF dihe0 55.00 38.92 24.37 25.30 90.95 -137.18 -126.15 -27.22 22.43 -156.81 42.12 137.18 -158.29 -161.73 -92.72 48.57 -66.73 179.90 22.60 -36.26 164.09 -30.19 -166.83 17.12 
DOCKED: USER  keepresnum = 1 
DOCKED: USER  
DOCKED: REMARK  24 active torsions:
DOCKED: REMARK  status: ('A' for Active; 'I' for Inactive)
DOCKED: REMARK    1  A    between atoms: C_1  and  O_7 
DOCKED: REMARK    2  A    between atoms: C_2  and  O_12 
DOCKED: REMARK    3  A    between atoms: C_3  and  O_17 
DOCKED: REMARK    4  A    between atoms: C_4  and  O_22 
DOCKED: REMARK    5  A    between atoms: C_5  and  O_27 
DOCKED: REMARK    6  A    between atoms: C_6  and  O_32 
DOCKED: REMARK    7  A    between atoms: O_7  and  P_8 
DOCKED: REMARK    8  A    between atoms: P_8  and  O_10 
DOCKED: REMARK    9  A    between atoms: P_8  and  O_11 
DOCKED: REMARK   10  A    between atoms: O_12  and  P_13 
DOCKED: REMARK   11  A    between atoms: P_13  and  O_15 
DOCKED: REMARK   12  A    between atoms: P_13  and  O_16 
DOCKED: REMARK   13  A    between atoms: O_17  and  P_18 
DOCKED: REMARK   14  A    between atoms: P_18  and  O_20 
DOCKED: REMARK   15  A    between atoms: P_18  and  O_21 
DOCKED: REMARK   16  A    between atoms: O_22  and  P_23 
DOCKED: REMARK   17  A    between atoms: P_23  and  O_25 
DOCKED: REMARK   18  A    between atoms: P_23  and  O_26 
DOCKED: REMARK   19  A    between atoms: O_27  and  P_28 
DOCKED: REMARK   20  A    between atoms: P_28  and  O_30 
DOCKED: REMARK   21  A    between atoms: P_28  and  O_31 
DOCKED: REMARK   22  A    between atoms: O_32  and  P_33 
DOCKED: REMARK   23  A    between atoms: P_33  and  O_35 
DOCKED: REMARK   24  A    between atoms: P_33  and  O_36 
DOCKED: USER                              x       y       z     vdW  Elec       q    Type
DOCKED: USER                           _______ _______ _______ _____ _____    ______ ____
DOCKED: ROOT
DOCKED: ATOM      1  C   UNL d   1      15.553   3.964  -2.409 -0.06 +0.02    +0.194 C 
DOCKED: ATOM      2  C   UNL d   1      14.629   4.406  -3.546 -0.06 +0.02    +0.194 C 
DOCKED: ATOM      3  C   UNL d   1      13.155   4.213  -3.185 -0.09 +0.01    +0.194 C 
DOCKED: ATOM      4  C   UNL d   1      12.774   4.849  -1.850 -0.11 +0.00    +0.194 C 
DOCKED: ATOM      5  C   UNL d   1      13.734   4.527  -0.713 -0.09 +0.00    +0.194 C 
DOCKED: ATOM      6  C   UNL d   1      15.210   4.661  -1.092 -0.05 +0.01    +0.194 C 
DOCKED: ENDROOT
DOCKED: BRANCH   1   7
DOCKED: ATOM      7  O   UNL d   1      16.890   4.334  -2.752 -0.05 -0.01    -0.278 OA
DOCKED: BRANCH   7   8
DOCKED: ATOM      8  P   UNL d   1      17.860   3.213  -3.348 -0.06 -0.00    +0.473 P 
DOCKED: ATOM      9  O   UNL d   1      18.916   2.732  -2.416 -0.02 +0.00    -0.228 OA
DOCKED: BRANCH   8  10
DOCKED: ATOM     10  O   UNL d   1      16.868   2.057  -3.823 -0.27 +0.03    -0.303 OA
DOCKED: ATOM     11  H   UNL d   1      16.880   1.328  -3.175 -0.49 -0.07    +0.222 HD
DOCKED: ENDBRANCH   8  10
DOCKED: BRANCH   8  12
DOCKED: ATOM     12  O   UNL d   1      18.372   3.802  -4.731 -0.02 -0.00    -0.303 OA
DOCKED: ATOM     13  H   UNL d   1      17.932   4.647  -4.977 +0.01 +0.00    +0.222 HD
DOCKED: ENDBRANCH   8  12
DOCKED: ENDBRANCH   7   8
DOCKED: ENDBRANCH   1   7
DOCKED: BRANCH   2  14
DOCKED: ATOM     14  O   UNL d   1      14.855   5.795  -3.816 -0.01 -0.01    -0.278 OA
DOCKED: BRANCH  14  15
DOCKED: ATOM     15  P   UNL d   1      15.879   6.137  -4.999 +0.00 +0.02    +0.473 P 
DOCKED: ATOM     16  O   UNL d   1      17.224   6.653  -4.595 +0.00 -0.01    -0.228 OA
DOCKED: BRANCH  15  17
DOCKED: ATOM     17  O   UNL d   1      15.962   4.788  -5.841 -0.02 -0.01    -0.303 OA
DOCKED: ATOM     18  H   UNL d   1      16.450   4.097  -5.353 +0.02 +0.01    +0.222 HD
DOCKED: ENDBRANCH  15  17
DOCKED: BRANCH  15  19
DOCKED: ATOM     19  O   UNL d   1      15.051   7.076  -5.981 +0.00 -0.01    -0.303 OA
DOCKED: ATOM     20  H   UNL d   1      14.109   6.826  -6.011 +0.01 +0.01    +0.222 HD
DOCKED: ENDBRANCH  15  19
DOCKED: ENDBRANCH  14  15
DOCKED: ENDBRANCH   2  14
DOCKED: BRANCH   6  21
DOCKED: ATOM     21  O   UNL d   1      15.960   4.010  -0.068 -0.02 -0.00    -0.278 OA
DOCKED: BRANCH  21  22
DOCKED: ATOM     22  P   UNL d   1      15.755   2.450   0.194 -0.06 -0.00    +0.473 P 
DOCKED: ATOM     23  O   UNL d   1      14.409   1.980   0.634 -0.18 -0.00    -0.228 OA
DOCKED: BRANCH  22  24
DOCKED: ATOM     24  O   UNL d   1      16.266   1.820  -1.176 -0.17 +0.01    -0.303 OA
DOCKED: ATOM     25  H   UNL d   1      16.901   2.459  -1.590 +0.03 -0.00    +0.222 HD
DOCKED: ENDBRANCH  22  24
DOCKED: BRANCH  22  26
DOCKED: ATOM     26  O   UNL d   1      16.972   2.123   1.184 -0.02 +0.00    -0.303 OA
DOCKED: ATOM     27  H   UNL d   1      16.988   2.786   1.905 +0.03 +0.00    +0.222 HD
DOCKED: ENDBRANCH  22  26
DOCKED: ENDBRANCH  21  22
DOCKED: ENDBRANCH   6  21
DOCKED: BRANCH   3  28
DOCKED: ATOM     28  O   UNL d   1      12.381   4.896  -4.163 -0.08 -0.01    -0.278 OA
DOCKED: BRANCH  28  29
DOCKED: ATOM     29  P   UNL d   1      12.098   4.224  -5.579 -0.11 -0.00    +0.473 P 
DOCKED: ATOM     30  O   UNL d   1      12.206   2.743  -5.617 -0.57 -0.01    -0.228 OA
DOCKED: BRANCH  29  31
DOCKED: ATOM     31  O   UNL d   1      10.665   4.856  -5.906 -0.14 +0.02    -0.303 OA
DOCKED: ATOM     32  H   UNL d   1       9.989   4.410  -5.345 -0.17 -0.06    +0.222 HD
DOCKED: ENDBRANCH  29  31
DOCKED: BRANCH  29  33
DOCKED: ATOM     33  O   UNL d   1      13.071   5.042  -6.538 -0.04 -0.01    -0.303 OA
DOCKED: ATOM     34  H   UNL d   1      13.874   5.309  -6.028 +0.03 +0.01    +0.222 HD
DOCKED: ENDBRANCH  29  33
DOCKED: ENDBRANCH  28  29
DOCKED: ENDBRANCH   3  28
DOCKED: BRANCH   5  35
DOCKED: ATOM     35  O   UNL d   1      13.471   5.494   0.301 -0.05 -0.00    -0.278 OA
DOCKED: BRANCH  35  36
DOCKED: ATOM     36  P   UNL d   1      13.094   6.993  -0.095 -0.01 +0.01    +0.473 P 
DOCKED: ATOM     37  O   UNL d   1      13.532   7.430  -1.457 -0.01 -0.01    -0.228 OA
DOCKED: BRANCH  36  38
DOCKED: ATOM     38  O   UNL d   1      11.516   6.999   0.118 -0.05 -0.00    -0.303 OA
DOCKED: ATOM     39  H   UNL d   1      11.131   6.206  -0.314 -0.01 -0.00    +0.222 HD
DOCKED: ENDBRANCH  36  38
DOCKED: BRANCH  36  40
DOCKED: ATOM     40  O   UNL d   1      13.650   7.822   1.143 -0.01 -0.01    -0.303 OA
DOCKED: ATOM     41  H   UNL d   1      13.756   8.775   0.925 +0.01 +0.01    +0.222 HD
DOCKED: ENDBRANCH  36  40
DOCKED: ENDBRANCH  35  36
DOCKED: ENDBRANCH   5  35
DOCKED: BRANCH   4  42
DOCKED: ATOM     42  O   UNL d   1      11.496   4.315  -1.487 -0.11 +0.01    -0.278 OA
DOCKED: BRANCH  42  43
DOCKED: ATOM     43  P   UNL d   1      10.180   5.124  -1.886 -0.15 +0.01    +0.473 P 
DOCKED: ATOM     44  O   UNL d   1       9.131   5.286  -0.841 -0.12 -0.01    -0.228 OA
DOCKED: BRANCH  43  45
DOCKED: ATOM     45  O   UNL d   1      10.768   6.496  -2.438 -0.09 -0.02    -0.303 OA
DOCKED: ATOM     46  H   UNL d   1      11.606   6.731  -1.992 +0.05 +0.01    +0.222 HD
DOCKED: ENDBRANCH  43  45
DOCKED: BRANCH  43  47
DOCKED: ATOM     47  O   UNL d   1       9.705   4.406  -3.238 -0.34 +0.01    -0.303 OA
DOCKED: ATOM     48  H   UNL d   1      10.483   4.253  -3.813 +0.06 -0.02    +0.222 HD
DOCKED: ENDBRANCH  43  47
DOCKED: ENDBRANCH  42  43
DOCKED: ENDBRANCH   4  42
DOCKED: TORSDOF 24
DOCKED: TER
DOCKED: ENDMDL
________________________________________________________________________________


	BEGINNING GENETIC ALGORITHM DOCKING 2 of 100
Run: 2 Seed: 312928232 1217557782 [ Run 2 of 100 GA/GALS ]
Beginning LAMARCKIAN GENETIC ALGORITHM (LGA), with a maximum of 25000000 energy evaluations.

Final-Value: -17.484


	FINAL GENETIC ALGORITHM DOCKED STATE
	_______________________________________________


Detailed state:  trans -3.827 15.280 -8.787 quatxyzw -0.836039 0.255394 -0.446742 -0.190352 center 0.035 0.082 -0.065 ntor 24 79.5184 63.1749 154.4189 -5.3915 -2.7730 180.0000 47.8878 -78.0426 -173.7112 -20.2433 -180.0000 141.8977 167.7014 177.3708 25.9233 -67.4340 151.7610 -175.1794 43.9619 -2.4247 170.1314 -17.9533 -1.9857 27.7505
State:	 -3.827  15.280  -8.787  -0.852  0.260 -0.455 -158.053     79.52   63.17  154.42   -5.39   -2.77  180.00   47.89  -78.04 -173.71  -20.24 -180.00  141.90  167.70  177.37   25.92  -67.43  151.76 -175.18   43.96   -2.42  170.13  -17.95   -1.99   27.75

DOCKED: MODEL        2
DOCKED: USER    Run = 2
DOCKED: USER    DPF = D:/Protein_go_brrr/autodock/final/mut_D99N/IHP/dock.dpf
DOCKED: USER  
DOCKED: USER    Estimated Free Energy of Binding    =   +3.45 kcal/mol  [=(1)+(2)+(3)-(4)]
DOCKED: USER    
DOCKED: USER    (1) Final Intermolecular Energy     =   -3.71 kcal/mol
DOCKED: USER        vdW + Hbond + desolv Energy     =   -3.40 kcal/mol
DOCKED: USER        Electrostatic Energy            =   -0.31 kcal/mol
DOCKED: USER    (2) Final Total Internal Energy     =  -13.77 kcal/mol
DOCKED: USER    (3) Torsional Free Energy           =   +7.16 kcal/mol
DOCKED: USER    (4) Unbound System's Energy  [=(2)] =  -13.77 kcal/mol
DOCKED: USER    
DOCKED: USER    
DOCKED: USER    NEWDPF move IHP_ideal_opt.pdbqt
DOCKED: USER    NEWDPF about 0.035000 0.082000 -0.065000
DOCKED: USER    NEWDPF tran0 -3.826676 15.279744 -8.786888
DOCKED: USER    NEWDPF quaternion0 -0.836039 0.255394 -0.446742 -0.190352
DOCKED: USER    NEWDPF axisangle0 -0.851610 0.260151 -0.455062 -158.053305
DOCKED: USER    NEWDPF quat0 -0.851610 0.260151 -0.455062 -158.053305
DOCKED: USER    NEWDPF dihe0 79.52 63.17 154.42 -5.39 -2.77 180.00 47.89 -78.04 -173.71 -20.24 -180.00 141.90 167.70 177.37 25.92 -67.43 151.76 -175.18 43.96 -2.42 170.13 -17.95 -1.99 27.75 
DOCKED: USER  keepresnum = 1 
DOCKED: USER  
DOCKED: REMARK  24 active torsions:
DOCKED: REMARK  status: ('A' for Active; 'I' for Inactive)
DOCKED: REMARK    1  A    between atoms: C_1  and  O_7 
DOCKED: REMARK    2  A    between atoms: C_2  and  O_12 
DOCKED: REMARK    3  A    between atoms: C_3  and  O_17 
DOCKED: REMARK    4  A    between atoms: C_4  and  O_22 
DOCKED: REMARK    5  A    between atoms: C_5  and  O_27 
DOCKED: REMARK    6  A    between atoms: C_6  and  O_32 
DOCKED: REMARK    7  A    between atoms: O_7  and  P_8 
DOCKED: REMARK    8  A    between atoms: P_8  and  O_10 
DOCKED: REMARK    9  A    between atoms: P_8  and  O_11 
DOCKED: REMARK   10  A    between atoms: O_12  and  P_13 
DOCKED: REMARK   11  A    between atoms: P_13  and  O_15 
DOCKED: REMARK   12  A    between atoms: P_13  and  O_16 
DOCKED: REMARK   13  A    between atoms: O_17  and  P_18 
DOCKED: REMARK   14  A    between atoms: P_18  and  O_20 
DOCKED: REMARK   15  A    between atoms: P_18  and  O_21 
DOCKED: REMARK   16  A    between atoms: O_22  and  P_23 
DOCKED: REMARK   17  A    between atoms: P_23  and  O_25 
DOCKED: REMARK   18  A    between atoms: P_23  and  O_26 
DOCKED: REMARK   19  A    between atoms: O_27  and  P_28 
DOCKED: REMARK   20  A    between atoms: P_28  and  O_30 
DOCKED: REMARK   21  A    between atoms: P_28  and  O_31 
DOCKED: REMARK   22  A    between atoms: O_32  and  P_33 
DOCKED: REMARK   23  A    between atoms: P_33  and  O_35 
DOCKED: REMARK   24  A    between atoms: P_33  and  O_36 
DOCKED: USER                              x       y       z     vdW  Elec       q    Type
DOCKED: USER                           _______ _______ _______ _____ _____    ______ ____
DOCKED: ROOT
DOCKED: ATOM      1  C   UNL d   1      -2.341  15.311  -7.905 -0.15 -0.01    +0.194 C 
DOCKED: ATOM      2  C   UNL d   1      -3.033  16.663  -8.082 -0.07 +0.00    +0.194 C 
DOCKED: ATOM      3  C   UNL d   1      -3.568  16.845  -9.504 -0.02 -0.00    +0.194 C 
DOCKED: ATOM      4  C   UNL d   1      -4.443  15.684  -9.970 -0.04 -0.00    +0.194 C 
DOCKED: ATOM      5  C   UNL d   1      -3.841  14.309  -9.708 -0.11 -0.01    +0.194 C 
DOCKED: ATOM      6  C   UNL d   1      -3.251  14.148  -8.306 -0.20 -0.02    +0.194 C 
DOCKED: ENDROOT
DOCKED: BRANCH   1   7
DOCKED: ATOM      7  O   UNL d   1      -2.027  15.148  -6.520 -0.54 -0.00    -0.278 OA
DOCKED: BRANCH   7   8
DOCKED: ATOM      8  P   UNL d   1      -0.749  15.909  -5.938 -0.09 -0.02    +0.473 P 
DOCKED: ATOM      9  O   UNL d   1       0.055  15.132  -4.955 -0.07 +0.03    -0.228 OA
DOCKED: BRANCH   8  10
DOCKED: ATOM     10  O   UNL d   1       0.079  16.325  -7.236 -0.04 +0.04    -0.303 OA
DOCKED: ATOM     11  H   UNL d   1       0.567  15.552  -7.575 +0.04 -0.05    +0.222 HD
DOCKED: ENDBRANCH   8  10
DOCKED: BRANCH   8  12
DOCKED: ATOM     12  O   UNL d   1      -1.299  17.311  -5.430 -0.07 -0.02    -0.303 OA
DOCKED: ATOM     13  H   UNL d   1      -2.274  17.320  -5.306 +0.03 +0.03    +0.222 HD
DOCKED: ENDBRANCH   8  12
DOCKED: ENDBRANCH   7   8
DOCKED: ENDBRANCH   1   7
DOCKED: BRANCH   2  14
DOCKED: ATOM     14  O   UNL d   1      -4.132  16.749  -7.166 -0.31 -0.04    -0.278 OA
DOCKED: BRANCH  14  15
DOCKED: ATOM     15  P   UNL d   1      -4.203  18.062  -6.253 -0.02 +0.06    +0.473 P 
DOCKED: ATOM     16  O   UNL d   1      -4.323  17.849  -4.777 -0.06 -0.06    -0.228 OA
DOCKED: BRANCH  15  17
DOCKED: ATOM     17  O   UNL d   1      -2.898  18.884  -6.655 -0.01 -0.02    -0.303 OA
DOCKED: ATOM     18  H   UNL d   1      -2.893  19.091  -7.609 +0.01 +0.01    +0.222 HD
DOCKED: ENDBRANCH  15  17
DOCKED: BRANCH  15  19
DOCKED: ATOM     19  O   UNL d   1      -5.351  18.944  -6.914 -0.01 -0.02    -0.303 OA
DOCKED: ATOM     20  H   UNL d   1      -5.107  19.239  -7.811 +0.01 +0.01    +0.222 HD
DOCKED: ENDBRANCH  15  19
DOCKED: ENDBRANCH  14  15
DOCKED: ENDBRANCH   2  14
DOCKED: BRANCH   6  21
DOCKED: ATOM     21  O   UNL d   1      -2.442  12.974  -8.331 -0.30 +0.06    -0.278 OA
DOCKED: BRANCH  21  22
DOCKED: ATOM     22  P   UNL d   1      -1.102  12.954  -9.195 -0.13 -0.18    +0.473 P 
DOCKED: ATOM     23  O   UNL d   1      -0.076  14.003  -8.928 -0.14 +0.09    -0.228 OA
DOCKED: BRANCH  22  24
DOCKED: ATOM     24  O   UNL d   1      -0.599  11.459  -8.982 -0.17 +0.25    -0.303 OA
DOCKED: ATOM     25  H   UNL d   1      -0.312  11.362  -8.038 -0.44 -0.45    +0.222 HD
DOCKED: ENDBRANCH  22  24
DOCKED: BRANCH  22  26
DOCKED: ATOM     26  O   UNL d   1      -1.679  12.899 -10.690 -0.03 +0.04    -0.303 OA
DOCKED: ATOM     27  H   UNL d   1      -2.653  12.989 -10.662 +0.06 -0.02    +0.222 HD
DOCKED: ENDBRANCH  22  26
DOCKED: ENDBRANCH  21  22
DOCKED: ENDBRANCH   6  21
DOCKED: BRANCH   3  28
DOCKED: ATOM     28  O   UNL d   1      -4.422  17.982  -9.499 -0.00 -0.00    -0.278 OA
DOCKED: BRANCH  28  29
DOCKED: ATOM     29  P   UNL d   1      -3.845  19.422  -9.858 +0.01 +0.00    +0.473 P 
DOCKED: ATOM     30  O   UNL d   1      -3.400  20.241  -8.702 +0.00 -0.00    -0.228 OA
DOCKED: BRANCH  29  31
DOCKED: ATOM     31  O   UNL d   1      -2.731  19.016 -10.933 +0.00 +0.00    -0.303 OA
DOCKED: ATOM     32  H   UNL d   1      -3.096  19.166 -11.836 +0.00 -0.00    +0.222 HD
DOCKED: ENDBRANCH  29  31
DOCKED: BRANCH  29  33
DOCKED: ATOM     33  O   UNL d   1      -5.004  20.029 -10.766 +0.00 +0.00    -0.303 OA
DOCKED: ATOM     34  H   UNL d   1      -5.570  19.291 -11.100 +0.00 -0.00    +0.222 HD
DOCKED: ENDBRANCH  29  33
DOCKED: ENDBRANCH  28  29
DOCKED: ENDBRANCH   3  28
DOCKED: BRANCH   5  35
DOCKED: ATOM     35  O   UNL d   1      -4.923  13.386  -9.817 -0.15 +0.01    -0.278 OA
DOCKED: BRANCH  35  36
DOCKED: ATOM     36  P   UNL d   1      -4.796  12.104 -10.757 -0.09 -0.00    +0.473 P 
DOCKED: ATOM     37  O   UNL d   1      -6.082  11.419 -11.093 -0.27 +0.00    -0.228 OA
DOCKED: BRANCH  36  38
DOCKED: ATOM     38  O   UNL d   1      -4.024  12.699 -12.017 -0.05 +0.01    -0.303 OA
DOCKED: ATOM     39  H   UNL d   1      -3.148  12.262 -12.093 +0.05 -0.01    +0.222 HD
DOCKED: ENDBRANCH  36  38
DOCKED: BRANCH  36  40
DOCKED: ATOM     40  O   UNL d   1      -3.692  11.239 -10.006 -0.11 +0.00    -0.303 OA
DOCKED: ATOM     41  H   UNL d   1      -2.832  11.713  -9.953 +0.09 -0.02    +0.222 HD
DOCKED: ENDBRANCH  36  40
DOCKED: ENDBRANCH  35  36
DOCKED: ENDBRANCH   5  35
DOCKED: BRANCH   4  42
DOCKED: ATOM     42  O   UNL d   1      -4.588  15.817 -11.388 -0.00 +0.01    -0.278 OA
DOCKED: BRANCH  42  43
DOCKED: ATOM     43  P   UNL d   1      -5.707  16.799 -11.960 +0.01 -0.01    +0.473 P 
DOCKED: ATOM     44  O   UNL d   1      -6.633  16.258 -12.994 -0.01 +0.01    -0.228 OA
DOCKED: BRANCH  43  45
DOCKED: ATOM     45  O   UNL d   1      -6.433  17.309 -10.639 +0.00 +0.00    -0.303 OA
DOCKED: ATOM     46  H   UNL d   1      -6.201  18.237 -10.438 +0.01 -0.00    +0.222 HD
DOCKED: ENDBRANCH  43  45
DOCKED: BRANCH  43  47
DOCKED: ATOM     47  O   UNL d   1      -4.870  18.096 -12.392 +0.00 +0.01    -0.303 OA
DOCKED: ATOM     48  H   UNL d   1      -4.171  18.265 -11.727 +0.00 -0.00    +0.222 HD
DOCKED: ENDBRANCH  43  47
DOCKED: ENDBRANCH  42  43
DOCKED: ENDBRANCH   4  42
DOCKED: TORSDOF 24
DOCKED: TER
DOCKED: ENDMDL
________________________________________________________________________________


	BEGINNING GENETIC ALGORITHM DOCKING 3 of 100
Run: 3 Seed: 1610044964 843276505 [ Run 3 of 100 GA/GALS ]
Beginning LAMARCKIAN GENETIC ALGORITHM (LGA), with a maximum of 25000000 energy evaluations.

Final-Value: -19.989


	FINAL GENETIC ALGORITHM DOCKED STATE
	_______________________________________________


Detailed state:  trans -12.280 14.329 1.860 quatxyzw 0.729266 -0.393244 0.556634 0.060731 center 0.035 0.082 -0.065 ntor 24 137.0543 -137.9458 36.9550 71.8635 93.7316 87.1849 -126.1024 33.1332 97.4547 19.8054 61.4970 95.4740 -48.5673 -80.0018 156.7483 -151.2759 20.2375 -176.6578 -166.3813 -6.5958 2.7897 -28.7639 -180.0000 27.5958
State:	-12.280  14.329   1.860   0.731 -0.394  0.558 173.036    137.05 -137.95   36.96   71.86   93.73   87.18 -126.10   33.13   97.45   19.81   61.50   95.47  -48.57  -80.00  156.75 -151.28   20.24 -176.66 -166.38   -6.60    2.79  -28.76 -180.00   27.60

DOCKED: MODEL        3
DOCKED: USER    Run = 3
DOCKED: USER    DPF = D:/Protein_go_brrr/autodock/final/mut_D99N/IHP/dock.dpf
DOCKED: USER  
DOCKED: USER    Estimated Free Energy of Binding    =   +1.71 kcal/mol  [=(1)+(2)+(3)-(4)]
DOCKED: USER    
DOCKED: USER    (1) Final Intermolecular Energy     =   -5.45 kcal/mol
DOCKED: USER        vdW + Hbond + desolv Energy     =   -5.35 kcal/mol
DOCKED: USER        Electrostatic Energy            =   -0.10 kcal/mol
DOCKED: USER    (2) Final Total Internal Energy     =  -14.54 kcal/mol
DOCKED: USER    (3) Torsional Free Energy           =   +7.16 kcal/mol
DOCKED: USER    (4) Unbound System's Energy  [=(2)] =  -14.54 kcal/mol
DOCKED: USER    
DOCKED: USER    
DOCKED: USER    NEWDPF move IHP_ideal_opt.pdbqt
DOCKED: USER    NEWDPF about 0.035000 0.082000 -0.065000
DOCKED: USER    NEWDPF tran0 -12.280337 14.328869 1.860079
DOCKED: USER    NEWDPF quaternion0 0.729266 -0.393244 0.556634 0.060731
DOCKED: USER    NEWDPF axisangle0 0.730615 -0.393971 0.557663 173.036448
DOCKED: USER    NEWDPF quat0 0.730615 -0.393971 0.557663 173.036448
DOCKED: USER    NEWDPF dihe0 137.05 -137.95 36.96 71.86 93.73 87.18 -126.10 33.13 97.45 19.81 61.50 95.47 -48.57 -80.00 156.75 -151.28 20.24 -176.66 -166.38 -6.60 2.79 -28.76 -180.00 27.60 
DOCKED: USER  keepresnum = 1 
DOCKED: USER  
DOCKED: REMARK  24 active torsions:
DOCKED: REMARK  status: ('A' for Active; 'I' for Inactive)
DOCKED: REMARK    1  A    between atoms: C_1  and  O_7 
DOCKED: REMARK    2  A    between atoms: C_2  and  O_12 
DOCKED: REMARK    3  A    between atoms: C_3  and  O_17 
DOCKED: REMARK    4  A    between atoms: C_4  and  O_22 
DOCKED: REMARK    5  A    between atoms: C_5  and  O_27 
DOCKED: REMARK    6  A    between atoms: C_6  and  O_32 
DOCKED: REMARK    7  A    between atoms: O_7  and  P_8 
DOCKED: REMARK    8  A    between atoms: P_8  and  O_10 
DOCKED: REMARK    9  A    between atoms: P_8  and  O_11 
DOCKED: REMARK   10  A    between atoms: O_12  and  P_13 
DOCKED: REMARK   11  A    between atoms: P_13  and  O_15 
DOCKED: REMARK   12  A    between atoms: P_13  and  O_16 
DOCKED: REMARK   13  A    between atoms: O_17  and  P_18 
DOCKED: REMARK   14  A    between atoms: P_18  and  O_20 
DOCKED: REMARK   15  A    between atoms: P_18  and  O_21 
DOCKED: REMARK   16  A    between atoms: O_22  and  P_23 
DOCKED: REMARK   17  A    between atoms: P_23  and  O_25 
DOCKED: REMARK   18  A    between atoms: P_23  and  O_26 
DOCKED: REMARK   19  A    between atoms: O_27  and  P_28 
DOCKED: REMARK   20  A    between atoms: P_28  and  O_30 
DOCKED: REMARK   21  A    between atoms: P_28  and  O_31 
DOCKED: REMARK   22  A    between atoms: O_32  and  P_33 
DOCKED: REMARK   23  A    between atoms: P_33  and  O_35 
DOCKED: REMARK   24  A    between atoms: P_33  and  O_36 
DOCKED: USER                              x       y       z     vdW  Elec       q    Type
DOCKED: USER                           _______ _______ _______ _____ _____    ______ ____
DOCKED: ROOT
DOCKED: ATOM      1  C   UNL d   1     -11.062  13.856   2.990 -0.30 +0.01    +0.194 C 
DOCKED: ATOM      2  C   UNL d   1     -11.061  15.335   2.597 -0.23 +0.04    +0.194 C 
DOCKED: ATOM      3  C   UNL d   1     -11.270  15.521   1.093 -0.20 +0.04    +0.194 C 
DOCKED: ATOM      4  C   UNL d   1     -12.496  14.783   0.560 -0.22 +0.01    +0.194 C 
DOCKED: ATOM      5  C   UNL d   1     -12.598  13.335   1.022 -0.30 -0.03    +0.194 C 
DOCKED: ATOM      6  C   UNL d   1     -12.328  13.141   2.515 -0.26 -0.02    +0.194 C 
DOCKED: ENDROOT
DOCKED: BRANCH   1   7
DOCKED: ATOM      7  O   UNL d   1     -11.036  13.774   4.417 -0.28 +0.08    -0.278 OA
DOCKED: BRANCH   7   8
DOCKED: ATOM      8  P   UNL d   1     -12.349  14.192   5.226 -0.11 -0.29    +0.473 P 
DOCKED: ATOM      9  O   UNL d   1     -13.516  14.569   4.382 -0.07 +0.07    -0.228 OA
DOCKED: BRANCH   8  10
DOCKED: ATOM     10  O   UNL d   1     -12.635  12.941   6.173 -0.21 +0.28    -0.303 OA
DOCKED: ATOM     11  H   UNL d   1     -12.191  12.151   5.813 -0.41 -0.16    +0.222 HD
DOCKED: ENDBRANCH   8  10
DOCKED: BRANCH   8  12
DOCKED: ATOM     12  O   UNL d   1     -11.860  15.291   6.265 -0.16 +0.35    -0.303 OA
DOCKED: ATOM     13  H   UNL d   1     -12.595  15.670   6.798 -0.29 -0.35    +0.222 HD
DOCKED: ENDBRANCH   8  12
DOCKED: ENDBRANCH   7   8
DOCKED: ENDBRANCH   1   7
DOCKED: BRANCH   2  14
DOCKED: ATOM     14  O   UNL d   1     -12.121  16.003   3.292 -0.06 +0.01    -0.278 OA
DOCKED: BRANCH  14  15
DOCKED: ATOM     15  P   UNL d   1     -11.711  17.280   4.167 -0.03 -0.02    +0.473 P 
DOCKED: ATOM     16  O   UNL d   1     -10.294  17.338   4.647 -0.14 -0.02    -0.228 OA
DOCKED: BRANCH  15  17
DOCKED: ATOM     17  O   UNL d   1     -12.103  18.521   3.249 -0.01 -0.01    -0.303 OA
DOCKED: ATOM     18  H   UNL d   1     -11.633  18.489   2.394 +0.03 +0.03    +0.222 HD
DOCKED: ENDBRANCH  15  17
DOCKED: BRANCH  15  19
DOCKED: ATOM     19  O   UNL d   1     -12.823  17.358   5.301 -0.02 +0.09    -0.303 OA
DOCKED: ATOM     20  H   UNL d   1     -13.362  16.546   5.334 +0.04 -0.09    +0.222 HD
DOCKED: ENDBRANCH  15  19
DOCKED: ENDBRANCH  14  15
DOCKED: ENDBRANCH   2  14
DOCKED: BRANCH   6  21
DOCKED: ATOM     21  O   UNL d   1     -12.120  11.745   2.718 -0.23 +0.05    -0.278 OA
DOCKED: BRANCH  21  22
DOCKED: ATOM     22  P   UNL d   1     -13.310  10.840   3.276 -0.23 -0.08    +0.473 P 
DOCKED: ATOM     23  O   UNL d   1     -13.013   9.421   3.624 -0.33 +0.02    -0.228 OA
DOCKED: BRANCH  22  24
DOCKED: ATOM     24  O   UNL d   1     -13.852  11.724   4.484 -0.09 +0.08    -0.303 OA
DOCKED: ATOM     25  H   UNL d   1     -13.659  12.675   4.281 +0.10 -0.06    +0.222 HD
DOCKED: ENDBRANCH  22  24
DOCKED: BRANCH  22  26
DOCKED: ATOM     26  O   UNL d   1     -14.442  11.070   2.164 -0.25 +0.06    -0.303 OA
DOCKED: ATOM     27  H   UNL d   1     -14.962  11.867   2.394 +0.09 -0.04    +0.222 HD
DOCKED: ENDBRANCH  22  26
DOCKED: ENDBRANCH  21  22
DOCKED: ENDBRANCH   6  21
DOCKED: BRANCH   3  28
DOCKED: ATOM     28  O   UNL d   1     -11.532  16.900   0.865 -0.05 -0.06    -0.278 OA
DOCKED: BRANCH  28  29
DOCKED: ATOM     29  P   UNL d   1     -10.330  17.941   0.769 -0.07 +0.19    +0.473 P 
DOCKED: ATOM     30  O   UNL d   1     -10.726  19.362   0.593 -0.02 -0.05    -0.228 OA
DOCKED: BRANCH  29  31
DOCKED: ATOM     31  O   UNL d   1      -9.532  17.571   2.106 -0.11 -0.22    -0.303 OA
DOCKED: ATOM     32  H   UNL d   1     -10.031  17.925   2.878 +0.04 +0.09    +0.222 HD
DOCKED: ENDBRANCH  29  31
DOCKED: BRANCH  29  33
DOCKED: ATOM     33  O   UNL d   1      -9.423  17.300  -0.371 -0.10 -0.21    -0.303 OA
DOCKED: ATOM     34  H   UNL d   1      -9.686  17.682  -1.244 +0.05 +0.10    +0.222 HD
DOCKED: ENDBRANCH  29  33
DOCKED: ENDBRANCH  28  29
DOCKED: ENDBRANCH   3  28
DOCKED: BRANCH   5  35
DOCKED: ATOM     35  O   UNL d   1     -13.950  12.948   0.786 -0.28 +0.04    -0.278 OA
DOCKED: BRANCH  35  36
DOCKED: ATOM     36  P   UNL d   1     -15.150  13.870   1.288 -0.10 -0.04    +0.473 P 
DOCKED: ATOM     37  O   UNL d   1     -15.241  15.218   0.646 -0.10 +0.01    -0.228 OA
DOCKED: BRANCH  36  38
DOCKED: ATOM     38  O   UNL d   1     -16.412  12.934   1.026 -0.15 +0.04    -0.303 OA
DOCKED: ATOM     39  H   UNL d   1     -16.130  11.995   1.072 +0.01 -0.05    +0.222 HD
DOCKED: ENDBRANCH  36  38
DOCKED: BRANCH  36  40
DOCKED: ATOM     40  O   UNL d   1     -14.969  13.833   2.868 -0.03 +0.04    -0.303 OA
DOCKED: ATOM     41  H   UNL d   1     -14.455  13.047   3.157 +0.08 -0.04    +0.222 HD
DOCKED: ENDBRANCH  36  40
DOCKED: ENDBRANCH  35  36
DOCKED: ENDBRANCH   5  35
DOCKED: BRANCH   4  42
DOCKED: ATOM     42  O   UNL d   1     -12.380  14.763  -0.867 -0.13 -0.01    -0.278 OA
DOCKED: BRANCH  42  43
DOCKED: ATOM     43  P   UNL d   1     -12.872  16.032  -1.699 -0.07 +0.02    +0.473 P 
DOCKED: ATOM     44  O   UNL d   1     -13.769  15.784  -2.862 -0.15 -0.00    -0.228 OA
DOCKED: BRANCH  43  45
DOCKED: ATOM     45  O   UNL d   1     -13.506  16.962  -0.574 -0.03 -0.01    -0.303 OA
DOCKED: ATOM     46  H   UNL d   1     -13.609  16.481   0.272 +0.05 +0.01    +0.222 HD
DOCKED: ENDBRANCH  43  45
DOCKED: BRANCH  43  47
DOCKED: ATOM     47  O   UNL d   1     -11.508  16.805  -2.030 -0.04 -0.04    -0.303 OA
DOCKED: ATOM     48  H   UNL d   1     -11.279  17.391  -1.279 +0.05 +0.04    +0.222 HD
DOCKED: ENDBRANCH  43  47
DOCKED: ENDBRANCH  42  43
DOCKED: ENDBRANCH   4  42
DOCKED: TORSDOF 24
DOCKED: TER
DOCKED: ENDMDL
________________________________________________________________________________


	BEGINNING GENETIC ALGORITHM DOCKING 4 of 100
Run: 4 Seed: 258565987 1698985260 [ Run 4 of 100 GA/GALS ]
Beginning LAMARCKIAN GENETIC ALGORITHM (LGA), with a maximum of 25000000 energy evaluations.

Final-Value: -18.497


	FINAL GENETIC ALGORITHM DOCKED STATE
	_______________________________________________


Detailed state:  trans -14.127 14.487 4.578 quatxyzw -0.638052 -0.529984 0.535999 -0.157204 center 0.035 0.082 -0.065 ntor 24 180.0000 84.7888 92.6905 114.2568 -23.6619 173.0535 -107.9828 -87.1420 8.1041 100.4564 112.2298 142.4547 -67.6729 126.0887 -153.3218 17.1767 -6.5907 158.5527 6.5815 -7.0125 -52.7966 13.3897 151.8303 -22.7014
State:	-14.127  14.487   4.578  -0.646 -0.537  0.543 -161.911    180.00   84.79   92.69  114.26  -23.66  173.05 -107.98  -87.14    8.10  100.46  112.23  142.45  -67.67  126.09 -153.32   17.18   -6.59  158.55    6.58   -7.01  -52.80   13.39  151.83  -22.70

DOCKED: MODEL        4
DOCKED: USER    Run = 4
DOCKED: USER    DPF = D:/Protein_go_brrr/autodock/final/mut_D99N/IHP/dock.dpf
DOCKED: USER  
DOCKED: USER    Estimated Free Energy of Binding    =   +2.63 kcal/mol  [=(1)+(2)+(3)-(4)]
DOCKED: USER    
DOCKED: USER    (1) Final Intermolecular Energy     =   -4.53 kcal/mol
DOCKED: USER        vdW + Hbond + desolv Energy     =   -3.92 kcal/mol
DOCKED: USER        Electrostatic Energy            =   -0.61 kcal/mol
DOCKED: USER    (2) Final Total Internal Energy     =  -13.97 kcal/mol
DOCKED: USER    (3) Torsional Free Energy           =   +7.16 kcal/mol
DOCKED: USER    (4) Unbound System's Energy  [=(2)] =  -13.97 kcal/mol
DOCKED: USER    
DOCKED: USER    
DOCKED: USER    NEWDPF move IHP_ideal_opt.pdbqt
DOCKED: USER    NEWDPF about 0.035000 0.082000 -0.065000
DOCKED: USER    NEWDPF tran0 -14.126750 14.487103 4.577765
DOCKED: USER    NEWDPF quaternion0 -0.638052 -0.529984 0.535999 -0.157204
DOCKED: USER    NEWDPF axisangle0 -0.646085 -0.536656 0.542747 -161.910744
DOCKED: USER    NEWDPF quat0 -0.646085 -0.536656 0.542747 -161.910744
DOCKED: USER    NEWDPF dihe0 180.00 84.79 92.69 114.26 -23.66 173.05 -107.98 -87.14 8.10 100.46 112.23 142.45 -67.67 126.09 -153.32 17.18 -6.59 158.55 6.58 -7.01 -52.80 13.39 151.83 -22.70 
DOCKED: USER  keepresnum = 1 
DOCKED: USER  
DOCKED: REMARK  24 active torsions:
DOCKED: REMARK  status: ('A' for Active; 'I' for Inactive)
DOCKED: REMARK    1  A    between atoms: C_1  and  O_7 
DOCKED: REMARK    2  A    between atoms: C_2  and  O_12 
DOCKED: REMARK    3  A    between atoms: C_3  and  O_17 
DOCKED: REMARK    4  A    between atoms: C_4  and  O_22 
DOCKED: REMARK    5  A    between atoms: C_5  and  O_27 
DOCKED: REMARK    6  A    between atoms: C_6  and  O_32 
DOCKED: REMARK    7  A    between atoms: O_7  and  P_8 
DOCKED: REMARK    8  A    between atoms: P_8  and  O_10 
DOCKED: REMARK    9  A    between atoms: P_8  and  O_11 
DOCKED: REMARK   10  A    between atoms: O_12  and  P_13 
DOCKED: REMARK   11  A    between atoms: P_13  and  O_15 
DOCKED: REMARK   12  A    between atoms: P_13  and  O_16 
DOCKED: REMARK   13  A    between atoms: O_17  and  P_18 
DOCKED: REMARK   14  A    between atoms: P_18  and  O_20 
DOCKED: REMARK   15  A    between atoms: P_18  and  O_21 
DOCKED: REMARK   16  A    between atoms: O_22  and  P_23 
DOCKED: REMARK   17  A    between atoms: P_23  and  O_25 
DOCKED: REMARK   18  A    between atoms: P_23  and  O_26 
DOCKED: REMARK   19  A    between atoms: O_27  and  P_28 
DOCKED: REMARK   20  A    between atoms: P_28  and  O_30 
DOCKED: REMARK   21  A    between atoms: P_28  and  O_31 
DOCKED: REMARK   22  A    between atoms: O_32  and  P_33 
DOCKED: REMARK   23  A    between atoms: P_33  and  O_35 
DOCKED: REMARK   24  A    between atoms: P_33  and  O_36 
DOCKED: USER                              x       y       z     vdW  Elec       q    Type
DOCKED: USER                           _______ _______ _______ _____ _____    ______ ____
DOCKED: ROOT
DOCKED: ATOM      1  C   UNL d   1     -15.421  15.600   4.315 -0.01 -0.04    +0.194 C 
DOCKED: ATOM      2  C   UNL d   1     -15.346  14.994   5.717 -0.04 -0.08    +0.194 C 
DOCKED: ATOM      3  C   UNL d   1     -15.048  13.494   5.671 -0.06 -0.09    +0.194 C 
DOCKED: ATOM      4  C   UNL d   1     -13.824  13.149   4.826 -0.12 -0.07    +0.194 C 
DOCKED: ATOM      5  C   UNL d   1     -13.802  13.825   3.461 -0.09 -0.04    +0.194 C 
DOCKED: ATOM      6  C   UNL d   1     -14.160  15.312   3.500 -0.03 -0.03    +0.194 C 
DOCKED: ENDROOT
DOCKED: BRANCH   1   7
DOCKED: ATOM      7  O   UNL d   1     -15.528  17.020   4.448 -0.00 +0.04    -0.278 OA
DOCKED: BRANCH   7   8
DOCKED: ATOM      8  P   UNL d   1     -16.861  17.732   3.932 +0.01 -0.04    +0.473 P 
DOCKED: ATOM      9  O   UNL d   1     -17.709  16.907   3.029 -0.00 +0.01    -0.228 OA
DOCKED: BRANCH   8  10
DOCKED: ATOM     10  O   UNL d   1     -17.610  18.168   5.271 +0.00 +0.03    -0.303 OA
DOCKED: ATOM     11  H   UNL d   1     -16.966  18.228   6.001 +0.00 -0.03    +0.222 HD
DOCKED: ENDBRANCH   8  10
DOCKED: BRANCH   8  12
DOCKED: ATOM     12  O   UNL d   1     -16.383  19.131   3.348 -0.00 +0.02    -0.303 OA
DOCKED: ATOM     13  H   UNL d   1     -15.535  19.072   2.852 +0.00 -0.01    +0.222 HD
DOCKED: ENDBRANCH   8  12
DOCKED: ENDBRANCH   7   8
DOCKED: ENDBRANCH   1   7
DOCKED: BRANCH   2  14
DOCKED: ATOM     14  O   UNL d   1     -14.300  15.644   6.451 -0.09 +0.21    -0.278 OA
DOCKED: BRANCH  14  15
DOCKED: ATOM     15  P   UNL d   1     -14.712  16.304   7.851 -0.03 -0.45    +0.473 P 
DOCKED: ATOM     16  O   UNL d   1     -13.631  17.015   8.602 -0.09 +0.28    -0.228 OA
DOCKED: BRANCH  15  17
DOCKED: ATOM     17  O   UNL d   1     -15.938  17.254   7.486 -0.01 +0.11    -0.303 OA
DOCKED: ATOM     18  H   UNL d   1     -16.112  17.250   6.525 +0.01 -0.06    +0.222 HD
DOCKED: ENDBRANCH  15  17
DOCKED: BRANCH  15  19
DOCKED: ATOM     19  O   UNL d   1     -15.440  15.132   8.643 -0.04 +0.38    -0.303 OA
DOCKED: ATOM     20  H   UNL d   1     -14.881  14.336   8.703 -0.51 -0.54    +0.222 HD
DOCKED: ENDBRANCH  15  19
DOCKED: ENDBRANCH  14  15
DOCKED: ENDBRANCH   2  14
DOCKED: BRANCH   6  21
DOCKED: ATOM     21  O   UNL d   1     -14.430  15.706   2.157 -0.02 +0.02    -0.278 OA
DOCKED: BRANCH  21  22
DOCKED: ATOM     22  P   UNL d   1     -14.254  17.233   1.729 +0.01 -0.01    +0.473 P 
DOCKED: ATOM     23  O   UNL d   1     -15.428  17.940   1.139 -0.01 +0.00    -0.228 OA
DOCKED: BRANCH  22  24
DOCKED: ATOM     24  O   UNL d   1     -13.688  17.883   3.068 -0.00 +0.01    -0.303 OA
DOCKED: ATOM     25  H   UNL d   1     -14.458  18.186   3.613 +0.01 -0.02    +0.222 HD
DOCKED: ENDBRANCH  22  24
DOCKED: BRANCH  22  26
DOCKED: ATOM     26  O   UNL d   1     -12.941  17.166   0.813 -0.01 -0.02    -0.303 OA
DOCKED: ATOM     27  H   UNL d   1     -12.614  16.243   0.786 +0.06 +0.02    +0.222 HD
DOCKED: ENDBRANCH  22  26
DOCKED: ENDBRANCH  21  22
DOCKED: ENDBRANCH   6  21
DOCKED: BRANCH   3  28
DOCKED: ATOM     28  O   UNL d   1     -14.724  13.080   6.992 -0.11 +0.25    -0.278 OA
DOCKED: BRANCH  28  29
DOCKED: ATOM     29  P   UNL d   1     -15.538  11.902   7.689 -0.05 -0.27    +0.473 P 
DOCKED: ATOM     30  O   UNL d   1     -16.745  11.438   6.958 -0.02 +0.05    -0.228 OA
DOCKED: BRANCH  29  31
DOCKED: ATOM     31  O   UNL d   1     -14.362  10.838   7.901 -0.16 +0.14    -0.303 OA
DOCKED: ATOM     32  H   UNL d   1     -13.948  10.649   7.027 +0.09 -0.08    +0.222 HD
DOCKED: ENDBRANCH  29  31
DOCKED: BRANCH  29  33
DOCKED: ATOM     33  O   UNL d   1     -15.762  12.475   9.158 -0.08 +0.28    -0.303 OA
DOCKED: ATOM     34  H   UNL d   1     -15.023  13.094   9.377 -0.38 -0.54    +0.222 HD
DOCKED: ENDBRANCH  29  33
DOCKED: ENDBRANCH  28  29
DOCKED: ENDBRANCH   3  28
DOCKED: BRANCH   5  35
DOCKED: ATOM     35  O   UNL d   1     -12.455  13.729   3.004 -0.15 +0.03    -0.278 OA
DOCKED: BRANCH  35  36
DOCKED: ATOM     36  P   UNL d   1     -11.337  14.710   3.582 -0.20 -0.01    +0.473 P 
DOCKED: ATOM     37  O   UNL d   1     -11.450  15.029   5.038 -0.25 +0.09    -0.228 OA
DOCKED: BRANCH  36  38
DOCKED: ATOM     38  O   UNL d   1      -9.997  13.949   3.181 -0.26 -0.09    -0.303 OA
DOCKED: ATOM     39  H   UNL d   1      -9.977  13.076   3.628 +0.09 +0.02    +0.222 HD
DOCKED: ENDBRANCH  36  38
DOCKED: BRANCH  36  40
DOCKED: ATOM     40  O   UNL d   1     -11.401  15.933   2.567 -0.10 -0.05    -0.303 OA
DOCKED: ATOM     41  H   UNL d   1     -12.295  16.341   2.544 +0.06 +0.01    +0.222 HD
DOCKED: ENDBRANCH  36  40
DOCKED: ENDBRANCH  35  36
DOCKED: ENDBRANCH   5  35
DOCKED: BRANCH   4  42
DOCKED: ATOM     42  O   UNL d   1     -13.863  11.737   4.596 -0.10 +0.07    -0.278 OA
DOCKED: BRANCH  42  43
DOCKED: ATOM     43  P   UNL d   1     -12.530  10.885   4.800 -0.17 -0.11    +0.473 P 
DOCKED: ATOM     44  O   UNL d   1     -12.419   9.597   4.060 -0.35 +0.03    -0.228 OA
DOCKED: BRANCH  43  45
DOCKED: ATOM     45  O   UNL d   1     -11.388  11.936   4.452 -0.19 +0.09    -0.303 OA
DOCKED: ATOM     46  H   UNL d   1     -11.602  12.826   4.798 -0.21 -0.12    +0.222 HD
DOCKED: ENDBRANCH  43  45
DOCKED: BRANCH  43  47
DOCKED: ATOM     47  O   UNL d   1     -12.402  10.780   6.394 -0.34 +0.12    -0.303 OA
DOCKED: ATOM     48  H   UNL d   1     -12.674  11.632   6.796 -0.01 -0.15    +0.222 HD
DOCKED: ENDBRANCH  43  47
DOCKED: ENDBRANCH  42  43
DOCKED: ENDBRANCH   4  42
DOCKED: TORSDOF 24
DOCKED: TER
DOCKED: ENDMDL
________________________________________________________________________________


	BEGINNING GENETIC ALGORITHM DOCKING 5 of 100
Run: 5 Seed: 810811755 316334484 [ Run 5 of 100 GA/GALS ]
Beginning LAMARCKIAN GENETIC ALGORITHM (LGA), with a maximum of 25000000 energy evaluations.

Final-Value: -19.446


	FINAL GENETIC ALGORITHM DOCKED STATE
	_______________________________________________


Detailed state:  trans -9.344 14.102 -8.423 quatxyzw -0.015870 -0.614275 0.778012 0.130811 center 0.035 0.082 -0.065 ntor 24 134.4099 56.2508 81.0753 135.7935 51.1471 -128.8946 -96.7550 27.4586 29.7432 73.2446 167.8891 -79.0490 0.9627 -17.1953 145.5162 14.6807 -14.1620 43.6802 -6.0774 -36.1588 -8.7982 177.1119 -26.3184 13.2156
State:	 -9.344  14.102  -8.423  -0.016 -0.620  0.785 164.967    134.41   56.25   81.08  135.79   51.15 -128.89  -96.76   27.46   29.74   73.24  167.89  -79.05    0.96  -17.20  145.52   14.68  -14.16   43.68   -6.08  -36.16   -8.80  177.11  -26.32   13.22

DOCKED: MODEL        5
DOCKED: USER    Run = 5
DOCKED: USER    DPF = D:/Protein_go_brrr/autodock/final/mut_D99N/IHP/dock.dpf
DOCKED: USER  
DOCKED: USER    Estimated Free Energy of Binding    =   +2.07 kcal/mol  [=(1)+(2)+(3)-(4)]
DOCKED: USER    
DOCKED: USER    (1) Final Intermolecular Energy     =   -5.08 kcal/mol
DOCKED: USER        vdW + Hbond + desolv Energy     =   -5.13 kcal/mol
DOCKED: USER        Electrostatic Energy            =   +0.04 kcal/mol
DOCKED: USER    (2) Final Total Internal Energy     =  -14.36 kcal/mol
DOCKED: USER    (3) Torsional Free Energy           =   +7.16 kcal/mol
DOCKED: USER    (4) Unbound System's Energy  [=(2)] =  -14.36 kcal/mol
DOCKED: USER    
DOCKED: USER    
DOCKED: USER    NEWDPF move IHP_ideal_opt.pdbqt
DOCKED: USER    NEWDPF about 0.035000 0.082000 -0.065000
DOCKED: USER    NEWDPF tran0 -9.343957 14.101528 -8.423204
DOCKED: USER    NEWDPF quaternion0 -0.015870 -0.614275 0.778012 0.130811
DOCKED: USER    NEWDPF axisangle0 -0.016008 -0.619599 0.784755 164.967067
DOCKED: USER    NEWDPF quat0 -0.016008 -0.619599 0.784755 164.967067
DOCKED: USER    NEWDPF dihe0 134.41 56.25 81.08 135.79 51.15 -128.89 -96.76 27.46 29.74 73.24 167.89 -79.05 0.96 -17.20 145.52 14.68 -14.16 43.68 -6.08 -36.16 -8.80 177.11 -26.32 13.22 
DOCKED: USER  keepresnum = 1 
DOCKED: USER  
DOCKED: REMARK  24 active torsions:
DOCKED: REMARK  status: ('A' for Active; 'I' for Inactive)
DOCKED: REMARK    1  A    between atoms: C_1  and  O_7 
DOCKED: REMARK    2  A    between atoms: C_2  and  O_12 
DOCKED: REMARK    3  A    between atoms: C_3  and  O_17 
DOCKED: REMARK    4  A    between atoms: C_4  and  O_22 
DOCKED: REMARK    5  A    between atoms: C_5  and  O_27 
DOCKED: REMARK    6  A    between atoms: C_6  and  O_32 
DOCKED: REMARK    7  A    between atoms: O_7  and  P_8 
DOCKED: REMARK    8  A    between atoms: P_8  and  O_10 
DOCKED: REMARK    9  A    between atoms: P_8  and  O_11 
DOCKED: REMARK   10  A    between atoms: O_12  and  P_13 
DOCKED: REMARK   11  A    between atoms: P_13  and  O_15 
DOCKED: REMARK   12  A    between atoms: P_13  and  O_16 
DOCKED: REMARK   13  A    between atoms: O_17  and  P_18 
DOCKED: REMARK   14  A    between atoms: P_18  and  O_20 
DOCKED: REMARK   15  A    between atoms: P_18  and  O_21 
DOCKED: REMARK   16  A    between atoms: O_22  and  P_23 
DOCKED: REMARK   17  A    between atoms: P_23  and  O_25 
DOCKED: REMARK   18  A    between atoms: P_23  and  O_26 
DOCKED: REMARK   19  A    between atoms: O_27  and  P_28 
DOCKED: REMARK   20  A    between atoms: P_28  and  O_30 
DOCKED: REMARK   21  A    between atoms: P_28  and  O_31 
DOCKED: REMARK   22  A    between atoms: O_32  and  P_33 
DOCKED: REMARK   23  A    between atoms: P_33  and  O_35 
DOCKED: REMARK   24  A    between atoms: P_33  and  O_36 
DOCKED: USER                              x       y       z     vdW  Elec       q    Type
DOCKED: USER                           _______ _______ _______ _____ _____    ______ ____
DOCKED: ROOT
DOCKED: ATOM      1  C   UNL d   1     -10.644  13.299  -7.617 -0.16 -0.01    +0.194 C 
DOCKED: ATOM      2  C   UNL d   1      -9.669  14.053  -6.711 -0.24 +0.00    +0.194 C 
DOCKED: ATOM      3  C   UNL d   1      -8.215  13.823  -7.128 -0.26 +0.01    +0.194 C 
DOCKED: ATOM      4  C   UNL d   1      -7.962  14.103  -8.607 -0.19 +0.00    +0.194 C 
DOCKED: ATOM      5  C   UNL d   1      -8.981  13.464  -9.543 -0.21 -0.01    +0.194 C 
DOCKED: ATOM      6  C   UNL d   1     -10.432  13.641  -9.092 -0.17 -0.02    +0.194 C 
DOCKED: ENDROOT
DOCKED: BRANCH   1   7
DOCKED: ATOM      7  O   UNL d   1     -11.972  13.700  -7.273 -0.14 +0.02    -0.278 OA
DOCKED: BRANCH   7   8
DOCKED: ATOM      8  P   UNL d   1     -13.054  12.563  -6.971 -0.25 -0.07    +0.473 P 
DOCKED: ATOM      9  O   UNL d   1     -12.643  11.555  -5.957 -0.78 +0.04    -0.228 OA
DOCKED: BRANCH   8  10
DOCKED: ATOM     10  O   UNL d   1     -14.362  13.375  -6.555 -0.39 +0.03    -0.303 OA
DOCKED: ATOM     11  H   UNL d   1     -14.109  14.259  -6.229 +0.07 -0.02    +0.222 HD
DOCKED: ENDBRANCH   8  10
DOCKED: BRANCH   8  12
DOCKED: ATOM     12  O   UNL d   1     -13.458  11.989  -8.396 -0.22 +0.10    -0.303 OA
DOCKED: ATOM     13  H   UNL d   1     -12.867  12.299  -9.119 +0.08 -0.06    +0.222 HD
DOCKED: ENDBRANCH   8  12
DOCKED: ENDBRANCH   7   8
DOCKED: ENDBRANCH   1   7
DOCKED: BRANCH   2  14
DOCKED: ATOM     14  O   UNL d   1      -9.950  15.456  -6.787 -0.05 -0.00    -0.278 OA
DOCKED: BRANCH  14  15
DOCKED: ATOM     15  P   UNL d   1     -10.904  16.058  -5.651 -0.01 +0.01    +0.473 P 
DOCKED: ATOM     16  O   UNL d   1     -10.725  15.517  -4.267 -0.13 -0.01    -0.228 OA
DOCKED: BRANCH  15  17
DOCKED: ATOM     17  O   UNL d   1     -10.663  17.630  -5.735 -0.00 -0.01    -0.303 OA
DOCKED: ATOM     18  H   UNL d   1      -9.863  17.836  -6.257 +0.02 +0.01    +0.222 HD
DOCKED: ENDBRANCH  15  17
DOCKED: BRANCH  15  19
DOCKED: ATOM     19  O   UNL d   1     -12.370  15.927  -6.254 -0.03 +0.01    -0.303 OA
DOCKED: ATOM     20  H   UNL d   1     -12.696  15.009  -6.213 +0.07 -0.01    +0.222 HD
DOCKED: ENDBRANCH  15  19
DOCKED: ENDBRANCH  14  15
DOCKED: ENDBRANCH   2  14
DOCKED: BRANCH   6  21
DOCKED: ATOM     21  O   UNL d   1     -11.214  12.722  -9.851 -0.22 +0.05    -0.278 OA
DOCKED: BRANCH  21  22
DOCKED: ATOM     22  P   UNL d   1     -12.234  13.269 -10.949 -0.12 -0.14    +0.473 P 
DOCKED: ATOM     23  O   UNL d   1     -12.963  12.276 -11.791 -0.22 +0.11    -0.228 OA
DOCKED: BRANCH  22  24
DOCKED: ATOM     24  O   UNL d   1     -13.168  14.221 -10.080 -0.04 +0.06    -0.303 OA
DOCKED: ATOM     25  H   UNL d   1     -13.015  14.013  -9.124 +0.07 -0.04    +0.222 HD
DOCKED: ENDBRANCH  22  24
DOCKED: BRANCH  22  26
DOCKED: ATOM     26  O   UNL d   1     -11.326  14.328 -11.739 -0.08 +0.08    -0.303 OA
DOCKED: ATOM     27  H   UNL d   1     -10.529  13.875 -12.083 -0.04 -0.08    +0.222 HD
DOCKED: ENDBRANCH  22  26
DOCKED: ENDBRANCH  21  22
DOCKED: ENDBRANCH   6  21
DOCKED: BRANCH   3  28
DOCKED: ATOM     28  O   UNL d   1      -7.413  14.763  -6.424 -0.23 -0.04    -0.278 OA
DOCKED: BRANCH  28  29
DOCKED: ATOM     29  P   UNL d   1      -7.449  16.306  -6.819 -0.07 +0.04    +0.473 P 
DOCKED: ATOM     30  O   UNL d   1      -8.142  16.625  -8.093 -0.03 -0.00    -0.228 OA
DOCKED: BRANCH  29  31
DOCKED: ATOM     31  O   UNL d   1      -8.070  16.923  -5.479 -0.04 -0.05    -0.303 OA
DOCKED: ATOM     32  H   UNL d   1      -8.831  16.364  -5.199 +0.06 +0.03    +0.222 HD
DOCKED: ENDBRANCH  29  31
DOCKED: BRANCH  29  33
DOCKED: ATOM     33  O   UNL d   1      -5.913  16.712  -6.714 -0.08 -0.03    -0.303 OA
DOCKED: ATOM     34  H   UNL d   1      -5.469  16.515  -7.575 +0.04 +0.01    +0.222 HD
DOCKED: ENDBRANCH  29  33
DOCKED: ENDBRANCH  28  29
DOCKED: ENDBRANCH   3  28
DOCKED: BRANCH   5  35
DOCKED: ATOM     35  O   UNL d   1      -8.842  14.144 -10.789 -0.10 +0.03    -0.278 OA
DOCKED: BRANCH  35  36
DOCKED: ATOM     36  P   UNL d   1      -8.094  13.442 -12.010 -0.16 -0.08    +0.473 P 
DOCKED: ATOM     37  O   UNL d   1      -8.194  11.950 -12.055 -0.31 +0.06    -0.228 OA
DOCKED: BRANCH  36  38
DOCKED: ATOM     38  O   UNL d   1      -8.749  14.179 -13.261 -0.11 +0.07    -0.303 OA
DOCKED: ATOM     39  H   UNL d   1      -9.709  14.296 -13.098 +0.03 -0.07    +0.222 HD
DOCKED: ENDBRANCH  36  38
DOCKED: BRANCH  36  40
DOCKED: ATOM     40  O   UNL d   1      -6.634  14.065 -11.919 -0.06 +0.02    -0.303 OA
DOCKED: ATOM     41  H   UNL d   1      -6.382  14.268 -10.991 +0.06 -0.01    +0.222 HD
DOCKED: ENDBRANCH  36  40
DOCKED: ENDBRANCH  35  36
DOCKED: ENDBRANCH   5  35
DOCKED: BRANCH   4  42
DOCKED: ATOM     42  O   UNL d   1      -6.686  13.538  -8.925 -0.17 -0.01    -0.278 OA
DOCKED: BRANCH  42  43
DOCKED: ATOM     43  P   UNL d   1      -5.405  14.488  -8.946 -0.13 -0.01    +0.473 P 
DOCKED: ATOM     44  O   UNL d   1      -4.654  14.657  -7.670 -0.19 +0.02    -0.228 OA
DOCKED: BRANCH  43  45
DOCKED: ATOM     45  O   UNL d   1      -4.540  13.881 -10.135 -0.08 +0.01    -0.303 OA
DOCKED: ATOM     46  H   UNL d   1      -4.710  14.349 -10.977 +0.05 -0.01    +0.222 HD
DOCKED: ENDBRANCH  43  45
DOCKED: BRANCH  43  47
DOCKED: ATOM     47  O   UNL d   1      -5.962  15.839  -9.605 -0.02 +0.00    -0.303 OA
DOCKED: ATOM     48  H   UNL d   1      -6.148  16.490  -8.897 +0.03 +0.00    +0.222 HD
DOCKED: ENDBRANCH  43  47
DOCKED: ENDBRANCH  42  43
DOCKED: ENDBRANCH   4  42
DOCKED: TORSDOF 24
DOCKED: TER
DOCKED: ENDMDL
________________________________________________________________________________


	BEGINNING GENETIC ALGORITHM DOCKING 6 of 100
Run: 6 Seed: 520483335 677082452 [ Run 6 of 100 GA/GALS ]
Beginning LAMARCKIAN GENETIC ALGORITHM (LGA), with a maximum of 25000000 energy evaluations.

Final-Value: -16.320


	FINAL GENETIC ALGORITHM DOCKED STATE
	_______________________________________________


Detailed state:  trans -12.032 15.500 -5.232 quatxyzw 0.747908 -0.088561 -0.293583 0.588727 center 0.035 0.082 -0.065 ntor 24 131.4351 80.9757 20.8671 95.6382 134.3946 137.1639 55.4200 -84.6076 -104.3969 110.8518 94.6762 -38.0654 -26.1030 -174.4383 -179.5119 -95.0100 -51.9489 101.7954 -12.5763 -52.0063 -3.2889 -22.2245 164.0806 162.1160
State:	-12.032  15.500  -5.232   0.925 -0.110 -0.363 107.867    131.44   80.98   20.87   95.64  134.39  137.16   55.42  -84.61 -104.40  110.85   94.68  -38.07  -26.10 -174.44 -179.51  -95.01  -51.95  101.80  -12.58  -52.01   -3.29  -22.22  164.08  162.12

DOCKED: MODEL        6
DOCKED: USER    Run = 6
DOCKED: USER    DPF = D:/Protein_go_brrr/autodock/final/mut_D99N/IHP/dock.dpf
DOCKED: USER  
DOCKED: USER    Estimated Free Energy of Binding    =   +2.60 kcal/mol  [=(1)+(2)+(3)-(4)]
DOCKED: USER    
DOCKED: USER    (1) Final Intermolecular Energy     =   -4.56 kcal/mol
DOCKED: USER        vdW + Hbond + desolv Energy     =   -4.37 kcal/mol
DOCKED: USER        Electrostatic Energy            =   -0.19 kcal/mol
DOCKED: USER    (2) Final Total Internal Energy     =  -11.76 kcal/mol
DOCKED: USER    (3) Torsional Free Energy           =   +7.16 kcal/mol
DOCKED: USER    (4) Unbound System's Energy  [=(2)] =  -11.76 kcal/mol
DOCKED: USER    
DOCKED: USER    
DOCKED: USER    NEWDPF move IHP_ideal_opt.pdbqt
DOCKED: USER    NEWDPF about 0.035000 0.082000 -0.065000
DOCKED: USER    NEWDPF tran0 -12.031648 15.499758 -5.231583
DOCKED: USER    NEWDPF quaternion0 0.747908 -0.088561 -0.293583 0.588727
DOCKED: USER    NEWDPF axisangle0 0.925249 -0.109560 -0.363196 107.866567
DOCKED: USER    NEWDPF quat0 0.925249 -0.109560 -0.363196 107.866567
DOCKED: USER    NEWDPF dihe0 131.44 80.98 20.87 95.64 134.39 137.16 55.42 -84.61 -104.40 110.85 94.68 -38.07 -26.10 -174.44 -179.51 -95.01 -51.95 101.80 -12.58 -52.01 -3.29 -22.22 164.08 162.12 
DOCKED: USER  keepresnum = 1 
DOCKED: USER  
DOCKED: REMARK  24 active torsions:
DOCKED: REMARK  status: ('A' for Active; 'I' for Inactive)
DOCKED: REMARK    1  A    between atoms: C_1  and  O_7 
DOCKED: REMARK    2  A    between atoms: C_2  and  O_12 
DOCKED: REMARK    3  A    between atoms: C_3  and  O_17 
DOCKED: REMARK    4  A    between atoms: C_4  and  O_22 
DOCKED: REMARK    5  A    between atoms: C_5  and  O_27 
DOCKED: REMARK    6  A    between atoms: C_6  and  O_32 
DOCKED: REMARK    7  A    between atoms: O_7  and  P_8 
DOCKED: REMARK    8  A    between atoms: P_8  and  O_10 
DOCKED: REMARK    9  A    between atoms: P_8  and  O_11 
DOCKED: REMARK   10  A    between atoms: O_12  and  P_13 
DOCKED: REMARK   11  A    between atoms: P_13  and  O_15 
DOCKED: REMARK   12  A    between atoms: P_13  and  O_16 
DOCKED: REMARK   13  A    between atoms: O_17  and  P_18 
DOCKED: REMARK   14  A    between atoms: P_18  and  O_20 
DOCKED: REMARK   15  A    between atoms: P_18  and  O_21 
DOCKED: REMARK   16  A    between atoms: O_22  and  P_23 
DOCKED: REMARK   17  A    between atoms: P_23  and  O_25 
DOCKED: REMARK   18  A    between atoms: P_23  and  O_26 
DOCKED: REMARK   19  A    between atoms: O_27  and  P_28 
DOCKED: REMARK   20  A    between atoms: P_28  and  O_30 
DOCKED: REMARK   21  A    between atoms: P_28  and  O_31 
DOCKED: REMARK   22  A    between atoms: O_32  and  P_33 
DOCKED: REMARK   23  A    between atoms: P_33  and  O_35 
DOCKED: REMARK   24  A    between atoms: P_33  and  O_36 
DOCKED: USER                              x       y       z     vdW  Elec       q    Type
DOCKED: USER                           _______ _______ _______ _____ _____    ______ ____
DOCKED: ROOT
DOCKED: ATOM      1  C   UNL d   1     -10.855  16.763  -5.283 -0.03 +0.01    +0.194 C 
DOCKED: ATOM      2  C   UNL d   1     -11.360  16.387  -3.889 -0.08 +0.01    +0.194 C 
DOCKED: ATOM      3  C   UNL d   1     -12.876  16.184  -3.872 -0.12 +0.00    +0.194 C 
DOCKED: ATOM      4  C   UNL d   1     -13.365  15.213  -4.944 -0.16 -0.01    +0.194 C 
DOCKED: ATOM      5  C   UNL d   1     -12.795  15.482  -6.331 -0.09 -0.01    +0.194 C 
DOCKED: ATOM      6  C   UNL d   1     -11.288  15.746  -6.340 -0.05 -0.00    +0.194 C 
DOCKED: ENDROOT
DOCKED: BRANCH   1   7
DOCKED: ATOM      7  O   UNL d   1      -9.425  16.765  -5.254 -0.02 -0.03    -0.278 OA
DOCKED: BRANCH   7   8
DOCKED: ATOM      8  P   UNL d   1      -8.653  17.981  -5.944 +0.01 +0.04    +0.473 P 
DOCKED: ATOM      9  O   UNL d   1      -9.424  19.252  -6.026 +0.00 -0.01    -0.228 OA
DOCKED: BRANCH   8  10
DOCKED: ATOM     10  O   UNL d   1      -7.308  18.116  -5.097 -0.02 -0.05    -0.303 OA
DOCKED: ATOM     11  H   UNL d   1      -7.455  17.777  -4.195 +0.04 +0.06    +0.222 HD
DOCKED: ENDBRANCH   8  10
DOCKED: BRANCH   8  12
DOCKED: ATOM     12  O   UNL d   1      -8.121  17.402  -7.324 -0.01 -0.01    -0.303 OA
DOCKED: ATOM     13  H   UNL d   1      -8.741  16.761  -7.739 +0.03 +0.01    +0.222 HD
DOCKED: ENDBRANCH   8  12
DOCKED: ENDBRANCH   7   8
DOCKED: ENDBRANCH   1   7
DOCKED: BRANCH   2  14
DOCKED: ATOM     14  O   UNL d   1     -10.731  15.167  -3.478 -0.17 -0.00    -0.278 OA
DOCKED: BRANCH  14  15
DOCKED: ATOM     15  P   UNL d   1      -9.236  15.285  -2.917 -0.15 +0.12    +0.473 P 
DOCKED: ATOM     16  O   UNL d   1      -8.175  14.546  -3.670 -0.27 -0.09    -0.228 OA
DOCKED: BRANCH  15  17
DOCKED: ATOM     17  O   UNL d   1      -8.969  16.855  -2.855 -0.07 -0.11    -0.303 OA
DOCKED: ATOM     18  H   UNL d   1      -8.818  17.221  -3.747 +0.05 +0.06    +0.222 HD
DOCKED: ENDBRANCH  15  17
DOCKED: BRANCH  15  19
DOCKED: ATOM     19  O   UNL d   1      -9.361  14.922  -1.374 -0.26 -0.13    -0.303 OA
DOCKED: ATOM     20  H   UNL d   1     -10.028  14.227  -1.220 -0.37 -0.00    +0.222 HD
DOCKED: ENDBRANCH  15  19
DOCKED: ENDBRANCH  14  15
DOCKED: ENDBRANCH   2  14
DOCKED: BRANCH   6  21
DOCKED: ATOM     21  O   UNL d   1     -10.975  16.308  -7.613 -0.01 +0.01    -0.278 OA
DOCKED: BRANCH  21  22
DOCKED: ATOM     22  P   UNL d   1     -10.231  15.419  -8.709 -0.01 -0.02    +0.473 P 
DOCKED: ATOM     23  O   UNL d   1      -9.326  16.105  -9.676 -0.02 +0.01    -0.228 OA
DOCKED: BRANCH  22  24
DOCKED: ATOM     24  O   UNL d   1      -9.528  14.312  -7.808 -0.11 +0.00    -0.303 OA
DOCKED: ATOM     25  H   UNL d   1     -10.236  13.737  -7.418 +0.11 -0.01    +0.222 HD
DOCKED: ENDBRANCH  22  24
DOCKED: BRANCH  22  26
DOCKED: ATOM     26  O   UNL d   1     -11.452  14.600  -9.348 -0.05 +0.03    -0.303 OA
DOCKED: ATOM     27  H   UNL d   1     -12.093  14.376  -8.643 +0.07 -0.02    +0.222 HD
DOCKED: ENDBRANCH  22  26
DOCKED: ENDBRANCH  21  22
DOCKED: ENDBRANCH   6  21
DOCKED: BRANCH   3  28
DOCKED: ATOM     28  O   UNL d   1     -13.213  15.576  -2.631 -0.12 -0.01    -0.278 OA
DOCKED: BRANCH  28  29
DOCKED: ATOM     29  P   UNL d   1     -13.527  16.474  -1.354 -0.06 +0.02    +0.473 P 
DOCKED: ATOM     30  O   UNL d   1     -12.651  16.242  -0.177 -0.08 -0.02    -0.228 OA
DOCKED: BRANCH  29  31
DOCKED: ATOM     31  O   UNL d   1     -13.480  17.930  -2.018 -0.01 -0.01    -0.303 OA
DOCKED: ATOM     32  H   UNL d   1     -14.401  18.275  -2.082 +0.02 +0.00    +0.222 HD
DOCKED: ENDBRANCH  29  31
DOCKED: BRANCH  29  33
DOCKED: ATOM     33  O   UNL d   1     -15.087  16.231  -1.149 -0.10 +0.01    -0.303 OA
DOCKED: ATOM     34  H   UNL d   1     -15.489  15.980  -2.017 +0.03 -0.01    +0.222 HD
DOCKED: ENDBRANCH  29  33
DOCKED: ENDBRANCH  28  29
DOCKED: ENDBRANCH   3  28
DOCKED: BRANCH   5  35
DOCKED: ATOM     35  O   UNL d   1     -13.016  14.288  -7.079 -0.10 +0.03    -0.278 OA
DOCKED: BRANCH  35  36
DOCKED: ATOM     36  P   UNL d   1     -12.278  12.934  -6.670 -0.26 -0.04    +0.473 P 
DOCKED: ATOM     37  O   UNL d   1     -11.242  13.063  -5.598 -0.37 +0.01    -0.228 OA
DOCKED: BRANCH  36  38
DOCKED: ATOM     38  O   UNL d   1     -13.507  11.998  -6.283 -0.88 +0.04    -0.303 OA
DOCKED: ATOM     39  H   UNL d   1     -13.165  11.150  -5.925 -0.41 -0.09    +0.222 HD
DOCKED: ENDBRANCH  36  38
DOCKED: BRANCH  36  40
DOCKED: ATOM     40  O   UNL d   1     -11.796  12.372  -8.077 -0.15 +0.04    -0.303 OA
DOCKED: ATOM     41  H   UNL d   1     -11.082  12.925  -8.465 +0.11 -0.02    +0.222 HD
DOCKED: ENDBRANCH  36  40
DOCKED: ENDBRANCH  35  36
DOCKED: ENDBRANCH   5  35
DOCKED: BRANCH   4  42
DOCKED: ATOM     42  O   UNL d   1     -14.785  15.376  -5.034 -0.15 +0.03    -0.278 OA
DOCKED: BRANCH  42  43
DOCKED: ATOM     43  P   UNL d   1     -15.383  16.844  -5.210 -0.05 -0.03    +0.473 P 
DOCKED: ATOM     44  O   UNL d   1     -16.637  16.984  -6.004 -0.03 +0.02    -0.228 OA
DOCKED: BRANCH  43  45
DOCKED: ATOM     45  O   UNL d   1     -15.504  17.354  -3.708 -0.04 +0.01    -0.303 OA
DOCKED: ATOM     46  H   UNL d   1     -14.909  16.857  -3.112 +0.03 -0.01    +0.222 HD
DOCKED: ENDBRANCH  43  45
DOCKED: BRANCH  43  47
DOCKED: ATOM     47  O   UNL d   1     -14.130  17.689  -5.742 -0.01 +0.01    -0.303 OA
DOCKED: ATOM     48  H   UNL d   1     -14.434  18.323  -6.425 +0.01 -0.01    +0.222 HD
DOCKED: ENDBRANCH  43  47
DOCKED: ENDBRANCH  42  43
DOCKED: ENDBRANCH   4  42
DOCKED: TORSDOF 24
DOCKED: TER
DOCKED: ENDMDL
________________________________________________________________________________


	BEGINNING GENETIC ALGORITHM DOCKING 7 of 100
Run: 7 Seed: 308347400 712838966 [ Run 7 of 100 GA/GALS ]
Beginning LAMARCKIAN GENETIC ALGORITHM (LGA), with a maximum of 25000000 energy evaluations.

Final-Value: -19.274


	FINAL GENETIC ALGORITHM DOCKED STATE
	_______________________________________________


Detailed state:  trans -10.365 -3.418 -19.290 quatxyzw 0.139746 -0.008249 -0.185678 0.972587 center 0.035 0.082 -0.065 ntor 24 130.8516 -4.8371 43.1075 44.4805 111.9530 -128.9685 -3.9947 -130.3438 -18.1243 98.6953 41.5011 -147.8119 -33.8546 -164.9878 97.3131 165.0478 -30.0800 144.1308 27.8172 -45.3476 -29.1754 -37.9383 149.5846 -5.6884
State:	-10.365  -3.418 -19.290   0.601 -0.035 -0.798 26.893    130.85   -4.84   43.11   44.48  111.95 -128.97   -3.99 -130.34  -18.12   98.70   41.50 -147.81  -33.85 -164.99   97.31  165.05  -30.08  144.13   27.82  -45.35  -29.18  -37.94  149.58   -5.69

DOCKED: MODEL        7
DOCKED: USER    Run = 7
DOCKED: USER    DPF = D:/Protein_go_brrr/autodock/final/mut_D99N/IHP/dock.dpf
DOCKED: USER  
DOCKED: USER    Estimated Free Energy of Binding    =   +2.22 kcal/mol  [=(1)+(2)+(3)-(4)]
DOCKED: USER    
DOCKED: USER    (1) Final Intermolecular Energy     =   -4.94 kcal/mol
DOCKED: USER        vdW + Hbond + desolv Energy     =   -4.63 kcal/mol
DOCKED: USER        Electrostatic Energy            =   -0.31 kcal/mol
DOCKED: USER    (2) Final Total Internal Energy     =  -14.34 kcal/mol
DOCKED: USER    (3) Torsional Free Energy           =   +7.16 kcal/mol
DOCKED: USER    (4) Unbound System's Energy  [=(2)] =  -14.34 kcal/mol
DOCKED: USER    
DOCKED: USER    
DOCKED: USER    NEWDPF move IHP_ideal_opt.pdbqt
DOCKED: USER    NEWDPF about 0.035000 0.082000 -0.065000
DOCKED: USER    NEWDPF tran0 -10.365399 -3.418133 -19.289952
DOCKED: USER    NEWDPF quaternion0 0.139746 -0.008249 -0.185678 0.972587
DOCKED: USER    NEWDPF axisangle0 0.600964 -0.035472 -0.798489 26.892994
DOCKED: USER    NEWDPF quat0 0.600964 -0.035472 -0.798489 26.892994
DOCKED: USER    NEWDPF dihe0 130.85 -4.84 43.11 44.48 111.95 -128.97 -3.99 -130.34 -18.12 98.70 41.50 -147.81 -33.85 -164.99 97.31 165.05 -30.08 144.13 27.82 -45.35 -29.18 -37.94 149.58 -5.69 
DOCKED: USER  keepresnum = 1 
DOCKED: USER  
DOCKED: REMARK  24 active torsions:
DOCKED: REMARK  status: ('A' for Active; 'I' for Inactive)
DOCKED: REMARK    1  A    between atoms: C_1  and  O_7 
DOCKED: REMARK    2  A    between atoms: C_2  and  O_12 
DOCKED: REMARK    3  A    between atoms: C_3  and  O_17 
DOCKED: REMARK    4  A    between atoms: C_4  and  O_22 
DOCKED: REMARK    5  A    between atoms: C_5  and  O_27 
DOCKED: REMARK    6  A    between atoms: C_6  and  O_32 
DOCKED: REMARK    7  A    between atoms: O_7  and  P_8 
DOCKED: REMARK    8  A    between atoms: P_8  and  O_10 
DOCKED: REMARK    9  A    between atoms: P_8  and  O_11 
DOCKED: REMARK   10  A    between atoms: O_12  and  P_13 
DOCKED: REMARK   11  A    between atoms: P_13  and  O_15 
DOCKED: REMARK   12  A    between atoms: P_13  and  O_16 
DOCKED: REMARK   13  A    between atoms: O_17  and  P_18 
DOCKED: REMARK   14  A    between atoms: P_18  and  O_20 
DOCKED: REMARK   15  A    between atoms: P_18  and  O_21 
DOCKED: REMARK   16  A    between atoms: O_22  and  P_23 
DOCKED: REMARK   17  A    between atoms: P_23  and  O_25 
DOCKED: REMARK   18  A    between atoms: P_23  and  O_26 
DOCKED: REMARK   19  A    between atoms: O_27  and  P_28 
DOCKED: REMARK   20  A    between atoms: P_28  and  O_30 
DOCKED: REMARK   21  A    between atoms: P_28  and  O_31 
DOCKED: REMARK   22  A    between atoms: O_32  and  P_33 
DOCKED: REMARK   23  A    between atoms: P_33  and  O_35 
DOCKED: REMARK   24  A    between atoms: P_33  and  O_36 
DOCKED: USER                              x       y       z     vdW  Elec       q    Type
DOCKED: USER                           _______ _______ _______ _____ _____    ______ ____
DOCKED: ROOT
DOCKED: ATOM      1  C   UNL d   1      -8.905  -3.543 -18.376 -0.18 +0.06    +0.194 C 
DOCKED: ATOM      2  C   UNL d   1      -9.761  -4.810 -18.430 -0.14 +0.02    +0.194 C 
DOCKED: ATOM      3  C   UNL d   1     -11.247  -4.497 -18.246 -0.10 +0.02    +0.194 C 
DOCKED: ATOM      4  C   UNL d   1     -11.756  -3.415 -19.196 -0.02 +0.03    +0.194 C 
DOCKED: ATOM      5  C   UNL d   1     -10.869  -2.178 -19.261 -0.06 +0.06    +0.194 C 
DOCKED: ATOM      6  C   UNL d   1      -9.377  -2.493 -19.383 -0.09 +0.08    +0.194 C 
DOCKED: ENDROOT
DOCKED: BRANCH   1   7
DOCKED: ATOM      7  O   UNL d   1      -7.564  -3.896 -18.726 -0.13 -0.10    -0.278 OA
DOCKED: BRANCH   7   8
DOCKED: ATOM      8  P   UNL d   1      -6.534  -4.223 -17.550 -0.29 +0.21    +0.473 P 
DOCKED: ATOM      9  O   UNL d   1      -7.156  -4.531 -16.234 -0.71 -0.09    -0.228 OA
DOCKED: BRANCH   8  10
DOCKED: ATOM     10  O   UNL d   1      -5.657  -5.425 -18.127 -0.24 -0.05    -0.303 OA
DOCKED: ATOM     11  H   UNL d   1      -6.180  -5.927 -18.780 +0.02 +0.02    +0.222 HD
DOCKED: ENDBRANCH   8  10
DOCKED: BRANCH   8  12
DOCKED: ATOM     12  O   UNL d   1      -5.497  -3.020 -17.562 -0.27 -0.28    -0.303 OA
DOCKED: ATOM     13  H   UNL d   1      -5.132  -2.834 -18.457 +0.10 +0.22    +0.222 HD
DOCKED: ENDBRANCH   8  12
DOCKED: ENDBRANCH   7   8
DOCKED: ENDBRANCH   1   7
DOCKED: BRANCH   2  14
DOCKED: ATOM     14  O   UNL d   1      -9.581  -5.441 -19.704 -0.04 -0.03    -0.278 OA
DOCKED: BRANCH  14  15
DOCKED: ATOM     15  P   UNL d   1      -8.343  -6.447 -19.836 -0.06 +0.03    +0.473 P 
DOCKED: ATOM     16  O   UNL d   1      -7.197  -5.995 -20.686 -0.06 -0.03    -0.228 OA
DOCKED: BRANCH  15  17
DOCKED: ATOM     17  O   UNL d   1      -7.916  -6.737 -18.329 -0.05 +0.02    -0.303 OA
DOCKED: ATOM     18  H   UNL d   1      -7.771  -5.905 -17.838 -0.33 -0.03    +0.222 HD
DOCKED: ENDBRANCH  15  17
DOCKED: BRANCH  15  19
DOCKED: ATOM     19  O   UNL d   1      -9.001  -7.834 -20.254 -0.03 -0.01    -0.303 OA
DOCKED: ATOM     20  H   UNL d   1      -9.964  -7.835 -20.104 +0.03 +0.01    +0.222 HD
DOCKED: ENDBRANCH  15  19
DOCKED: ENDBRANCH  14  15
DOCKED: ENDBRANCH   2  14
DOCKED: BRANCH   6  21
DOCKED: ATOM     21  O   UNL d   1      -8.676  -1.286 -19.087 -0.13 -0.22    -0.278 OA
DOCKED: BRANCH  21  22
DOCKED: ATOM     22  P   UNL d   1      -7.514  -0.787 -20.060 +0.01 +0.52    +0.473 P 
DOCKED: ATOM     23  O   UNL d   1      -7.579   0.611 -20.576 -0.60 -0.35    -0.228 OA
DOCKED: BRANCH  22  24
DOCKED: ATOM     24  O   UNL d   1      -6.211  -1.126 -19.212 -0.15 -0.43    -0.303 OA
DOCKED: ATOM     25  H   UNL d   1      -6.309  -2.043 -18.850 +0.08 +0.22    +0.222 HD
DOCKED: ENDBRANCH  22  24
DOCKED: BRANCH  22  26
DOCKED: ATOM     26  O   UNL d   1      -7.498  -1.945 -21.169 -0.02 -0.15    -0.303 OA
DOCKED: ATOM     27  H   UNL d   1      -8.388  -2.021 -21.568 +0.02 +0.08    +0.222 HD
DOCKED: ENDBRANCH  22  26
DOCKED: ENDBRANCH  21  22
DOCKED: ENDBRANCH   6  21
DOCKED: BRANCH   3  28
DOCKED: ATOM     28  O   UNL d   1     -11.977  -5.669 -18.584 -0.03 -0.02    -0.278 OA
DOCKED: BRANCH  28  29
DOCKED: ATOM     29  P   UNL d   1     -11.970  -6.930 -17.611 -0.07 +0.04    +0.473 P 
DOCKED: ATOM     30  O   UNL d   1     -13.276  -7.618 -17.444 -0.04 -0.02    -0.228 OA
DOCKED: BRANCH  29  31
DOCKED: ATOM     31  O   UNL d   1     -10.780  -7.779 -18.262 -0.10 -0.01    -0.303 OA
DOCKED: ATOM     32  H   UNL d   1     -10.013  -7.179 -18.415 +0.01 -0.00    +0.222 HD
DOCKED: ENDBRANCH  29  31
DOCKED: BRANCH  29  33
DOCKED: ATOM     33  O   UNL d   1     -11.298  -6.333 -16.296 -0.51 -0.04    -0.303 OA
DOCKED: ATOM     34  H   UNL d   1     -10.337  -6.175 -16.470 -0.47 -0.05    +0.222 HD
DOCKED: ENDBRANCH  29  33
DOCKED: ENDBRANCH  28  29
DOCKED: ENDBRANCH   3  28
DOCKED: BRANCH   5  35
DOCKED: ATOM     35  O   UNL d   1     -11.252  -1.490 -20.449 -0.01 -0.07    -0.278 OA
DOCKED: BRANCH  35  36
DOCKED: ATOM     36  P   UNL d   1     -10.709  -1.973 -21.869 +0.01 +0.10    +0.473 P 
DOCKED: ATOM     37  O   UNL d   1     -10.086  -3.333 -21.893 -0.00 -0.04    -0.228 OA
DOCKED: BRANCH  36  38
DOCKED: ATOM     38  O   UNL d   1     -12.007  -1.831 -22.780 +0.00 -0.04    -0.303 OA
DOCKED: ATOM     39  H   UNL d   1     -12.523  -2.665 -22.736 +0.00 +0.02    +0.222 HD
DOCKED: ENDBRANCH  36  38
DOCKED: BRANCH  36  40
DOCKED: ATOM     40  O   UNL d   1      -9.793  -0.752 -22.316 -0.00 -0.09    -0.303 OA
DOCKED: ATOM     41  H   UNL d   1      -9.090  -0.562 -21.655 +0.02 +0.10    +0.222 HD
DOCKED: ENDBRANCH  36  40
DOCKED: ENDBRANCH  35  36
DOCKED: ENDBRANCH   5  35
DOCKED: BRANCH   4  42
DOCKED: ATOM     42  O   UNL d   1     -13.031  -2.993 -18.699 -0.01 -0.04    -0.278 OA
DOCKED: BRANCH  42  43
DOCKED: ATOM     43  P   UNL d   1     -14.326  -3.228 -19.600 +0.01 +0.05    +0.473 P 
DOCKED: ATOM     44  O   UNL d   1     -15.594  -2.582 -19.161 +0.00 -0.03    -0.228 OA
DOCKED: BRANCH  43  45
DOCKED: ATOM     45  O   UNL d   1     -13.832  -2.779 -21.045 +0.00 -0.03    -0.303 OA
DOCKED: ATOM     46  H   UNL d   1     -13.165  -2.066 -20.989 +0.01 +0.03    +0.222 HD
DOCKED: ENDBRANCH  43  45
DOCKED: BRANCH  43  47
DOCKED: ATOM     47  O   UNL d   1     -14.380  -4.823 -19.756 +0.00 -0.02    -0.303 OA
DOCKED: ATOM     48  H   UNL d   1     -14.006  -5.238 -18.951 +0.01 +0.02    +0.222 HD
DOCKED: ENDBRANCH  43  47
DOCKED: ENDBRANCH  42  43
DOCKED: ENDBRANCH   4  42
DOCKED: TORSDOF 24
DOCKED: TER
DOCKED: ENDMDL
________________________________________________________________________________


	BEGINNING GENETIC ALGORITHM DOCKING 8 of 100
Run: 8 Seed: 1327873844 1777163156 [ Run 8 of 100 GA/GALS ]
Beginning LAMARCKIAN GENETIC ALGORITHM (LGA), with a maximum of 25000000 energy evaluations.

Final-Value: -19.895


	FINAL GENETIC ALGORITHM DOCKED STATE
	_______________________________________________


Detailed state:  trans 15.876 -12.687 -4.517 quatxyzw 0.639424 -0.169692 0.448471 -0.601012 center 0.035 0.082 -0.065 ntor 24 97.0558 -0.6539 -164.3907 153.2126 -5.5656 101.4741 24.9875 -130.0419 159.0452 127.2506 -35.0071 -171.2283 157.0945 70.7515 -180.0000 -105.9730 85.8911 155.4399 57.2843 23.6207 -180.0000 28.9924 12.9214 -178.2216
State:	 15.876 -12.687  -4.517   0.800 -0.212  0.561 -106.115     97.06   -0.65 -164.39  153.21   -5.57  101.47   24.99 -130.04  159.05  127.25  -35.01 -171.23  157.09   70.75 -180.00 -105.97   85.89  155.44   57.28   23.62 -180.00   28.99   12.92 -178.22

DOCKED: MODEL        8
DOCKED: USER    Run = 8
DOCKED: USER    DPF = D:/Protein_go_brrr/autodock/final/mut_D99N/IHP/dock.dpf
DOCKED: USER  
DOCKED: USER    Estimated Free Energy of Binding    =   +1.66 kcal/mol  [=(1)+(2)+(3)-(4)]
DOCKED: USER    
DOCKED: USER    (1) Final Intermolecular Energy     =   -5.50 kcal/mol
DOCKED: USER        vdW + Hbond + desolv Energy     =   -5.35 kcal/mol
DOCKED: USER        Electrostatic Energy            =   -0.15 kcal/mol
DOCKED: USER    (2) Final Total Internal Energy     =  -14.39 kcal/mol
DOCKED: USER    (3) Torsional Free Energy           =   +7.16 kcal/mol
DOCKED: USER    (4) Unbound System's Energy  [=(2)] =  -14.39 kcal/mol
DOCKED: USER    
DOCKED: USER    
DOCKED: USER    NEWDPF move IHP_ideal_opt.pdbqt
DOCKED: USER    NEWDPF about 0.035000 0.082000 -0.065000
DOCKED: USER    NEWDPF tran0 15.876259 -12.686716 -4.516809
DOCKED: USER    NEWDPF quaternion0 0.639424 -0.169692 0.448471 -0.601012
DOCKED: USER    NEWDPF axisangle0 0.800040 -0.212316 0.561122 -106.115134
DOCKED: USER    NEWDPF quat0 0.800040 -0.212316 0.561122 -106.115134
DOCKED: USER    NEWDPF dihe0 97.06 -0.65 -164.39 153.21 -5.57 101.47 24.99 -130.04 159.05 127.25 -35.01 -171.23 157.09 70.75 -180.00 -105.97 85.89 155.44 57.28 23.62 -180.00 28.99 12.92 -178.22 
DOCKED: USER  keepresnum = 1 
DOCKED: USER  
DOCKED: REMARK  24 active torsions:
DOCKED: REMARK  status: ('A' for Active; 'I' for Inactive)
DOCKED: REMARK    1  A    between atoms: C_1  and  O_7 
DOCKED: REMARK    2  A    between atoms: C_2  and  O_12 
DOCKED: REMARK    3  A    between atoms: C_3  and  O_17 
DOCKED: REMARK    4  A    between atoms: C_4  and  O_22 
DOCKED: REMARK    5  A    between atoms: C_5  and  O_27 
DOCKED: REMARK    6  A    between atoms: C_6  and  O_32 
DOCKED: REMARK    7  A    between atoms: O_7  and  P_8 
DOCKED: REMARK    8  A    between atoms: P_8  and  O_10 
DOCKED: REMARK    9  A    between atoms: P_8  and  O_11 
DOCKED: REMARK   10  A    between atoms: O_12  and  P_13 
DOCKED: REMARK   11  A    between atoms: P_13  and  O_15 
DOCKED: REMARK   12  A    between atoms: P_13  and  O_16 
DOCKED: REMARK   13  A    between atoms: O_17  and  P_18 
DOCKED: REMARK   14  A    between atoms: P_18  and  O_20 
DOCKED: REMARK   15  A    between atoms: P_18  and  O_21 
DOCKED: REMARK   16  A    between atoms: O_22  and  P_23 
DOCKED: REMARK   17  A    between atoms: P_23  and  O_25 
DOCKED: REMARK   18  A    between atoms: P_23  and  O_26 
DOCKED: REMARK   19  A    between atoms: O_27  and  P_28 
DOCKED: REMARK   20  A    between atoms: P_28  and  O_30 
DOCKED: REMARK   21  A    between atoms: P_28  and  O_31 
DOCKED: REMARK   22  A    between atoms: O_32  and  P_33 
DOCKED: REMARK   23  A    between atoms: P_33  and  O_35 
DOCKED: REMARK   24  A    between atoms: P_33  and  O_36 
DOCKED: USER                              x       y       z     vdW  Elec       q    Type
DOCKED: USER                           _______ _______ _______ _____ _____    ______ ____
DOCKED: ROOT
DOCKED: ATOM      1  C   UNL d   1      17.517 -12.816  -3.991 -0.13 -0.01    +0.194 C 
DOCKED: ATOM      2  C   UNL d   1      17.314 -12.701  -5.503 -0.10 +0.00    +0.194 C 
DOCKED: ATOM      3  C   UNL d   1      16.155 -13.575  -5.988 -0.06 +0.00    +0.194 C 
DOCKED: ATOM      4  C   UNL d   1      14.861 -13.341  -5.212 -0.13 +0.00    +0.194 C 
DOCKED: ATOM      5  C   UNL d   1      15.037 -13.333  -3.699 -0.16 -0.00    +0.194 C 
DOCKED: ATOM      6  C   UNL d   1      16.233 -12.509  -3.219 -0.22 -0.02    +0.194 C 
DOCKED: ENDROOT
DOCKED: BRANCH   1   7
DOCKED: ATOM      7  O   UNL d   1      18.493 -11.849  -3.597 -0.16 +0.01    -0.278 OA
DOCKED: BRANCH   7   8
DOCKED: ATOM      8  P   UNL d   1      19.987 -12.016  -4.136 -0.03 +0.01    +0.473 P 
DOCKED: ATOM      9  O   UNL d   1      21.045 -11.465  -3.245 -0.10 -0.01    -0.228 OA
DOCKED: BRANCH   8  10
DOCKED: ATOM     10  O   UNL d   1      20.134 -13.584  -4.390 -0.01 -0.01    -0.303 OA
DOCKED: ATOM     11  H   UNL d   1      20.002 -14.064  -3.552 +0.03 +0.00    +0.222 HD
DOCKED: ENDBRANCH   8  10
DOCKED: BRANCH   8  12
DOCKED: ATOM     12  O   UNL d   1      19.959 -11.440  -5.617 -0.08 -0.03    -0.303 OA
DOCKED: ATOM     13  H   UNL d   1      19.191 -11.761  -6.141 +0.05 +0.02    +0.222 HD
DOCKED: ENDBRANCH   8  12
DOCKED: ENDBRANCH   7   8
DOCKED: ENDBRANCH   1   7
DOCKED: BRANCH   2  14
DOCKED: ATOM     14  O   UNL d   1      17.026 -11.337  -5.834 -0.18 -0.01    -0.278 OA
DOCKED: BRANCH  14  15
DOCKED: ATOM     15  P   UNL d   1      17.377 -10.872  -7.325 -0.13 +0.06    +0.473 P 
DOCKED: ATOM     16  O   UNL d   1      16.272 -10.237  -8.109 -0.28 -0.02    -0.228 OA
DOCKED: BRANCH  15  17
DOCKED: ATOM     17  O   UNL d   1      18.637  -9.914  -7.146 -0.77 -0.14    -0.303 OA
DOCKED: ATOM     18  H   UNL d   1      19.468 -10.383  -7.351 +0.06 +0.04    +0.222 HD
DOCKED: ENDBRANCH  15  17
DOCKED: BRANCH  15  19
DOCKED: ATOM     19  O   UNL d   1      18.043 -12.153  -7.993 -0.04 -0.01    -0.303 OA
DOCKED: ATOM     20  H   UNL d   1      17.387 -12.694  -8.470 +0.05 +0.00    +0.222 HD
DOCKED: ENDBRANCH  15  19
DOCKED: ENDBRANCH  14  15
DOCKED: ENDBRANCH   2  14
DOCKED: BRANCH   6  21
DOCKED: ATOM     21  O   UNL d   1      16.465 -12.872  -1.860 -0.22 +0.04    -0.278 OA
DOCKED: BRANCH  21  22
DOCKED: ATOM     22  P   UNL d   1      17.206 -14.245  -1.523 -0.09 -0.05    +0.473 P 
DOCKED: ATOM     23  O   UNL d   1      16.861 -14.936  -0.247 -0.15 +0.07    -0.228 OA
DOCKED: BRANCH  22  24
DOCKED: ATOM     24  O   UNL d   1      16.928 -15.096  -2.839 -0.02 -0.00    -0.303 OA
DOCKED: ATOM     25  H   UNL d   1      15.970 -15.350  -2.845 +0.05 +0.02    +0.222 HD
DOCKED: ENDBRANCH  22  24
DOCKED: BRANCH  22  26
DOCKED: ATOM     26  O   UNL d   1      18.745 -13.839  -1.710 -0.07 +0.01    -0.303 OA
DOCKED: ATOM     27  H   UNL d   1      18.936 -13.732  -2.664 +0.05 -0.00    +0.222 HD
DOCKED: ENDBRANCH  22  26
DOCKED: ENDBRANCH  21  22
DOCKED: ENDBRANCH   6  21
DOCKED: BRANCH   3  28
DOCKED: ATOM     28  O   UNL d   1      15.866 -13.199  -7.328 -0.06 -0.00    -0.278 OA
DOCKED: BRANCH  28  29
DOCKED: ATOM     29  P   UNL d   1      15.518 -14.307  -8.418 -0.03 -0.00    +0.473 P 
DOCKED: ATOM     30  O   UNL d   1      16.249 -14.189  -9.706 -0.04 +0.01    -0.228 OA
DOCKED: BRANCH  29  31
DOCKED: ATOM     31  O   UNL d   1      15.771 -15.633  -7.558 -0.01 +0.00    -0.303 OA
DOCKED: ATOM     32  H   UNL d   1      15.006 -15.763  -6.951 +0.04 +0.00    +0.222 HD
DOCKED: ENDBRANCH  29  31
DOCKED: BRANCH  29  33
DOCKED: ATOM     33  O   UNL d   1      13.929 -14.226  -8.481 -0.16 +0.01    -0.303 OA
DOCKED: ATOM     34  H   UNL d   1      13.555 -14.599  -7.646 +0.08 -0.00    +0.222 HD
DOCKED: ENDBRANCH  29  33
DOCKED: ENDBRANCH  28  29
DOCKED: ENDBRANCH   3  28
DOCKED: BRANCH   5  35
DOCKED: ATOM     35  O   UNL d   1      13.863 -12.714  -3.177 -0.24 +0.01    -0.278 OA
DOCKED: BRANCH  35  36
DOCKED: ATOM     36  P   UNL d   1      13.225 -13.225  -1.807 -0.31 +0.05    +0.473 P 
DOCKED: ATOM     37  O   UNL d   1      12.925 -12.162  -0.799 -0.53 +0.03    -0.228 OA
DOCKED: BRANCH  36  38
DOCKED: ATOM     38  O   UNL d   1      11.945 -14.020  -2.321 -0.36 -0.08    -0.303 OA
DOCKED: ATOM     39  H   UNL d   1      12.195 -14.953  -2.495 +0.10 +0.09    +0.222 HD
DOCKED: ENDBRANCH  36  38
DOCKED: BRANCH  36  40
DOCKED: ATOM     40  O   UNL d   1      14.237 -14.371  -1.368 -0.35 -0.08    -0.303 OA
DOCKED: ATOM     41  H   UNL d   1      15.001 -14.010  -0.866 -0.51 -0.14    +0.222 HD
DOCKED: ENDBRANCH  36  40
DOCKED: ENDBRANCH  35  36
DOCKED: ENDBRANCH   5  35
DOCKED: BRANCH   4  42
DOCKED: ATOM     42  O   UNL d   1      13.986 -14.429  -5.529 -0.11 -0.01    -0.278 OA
DOCKED: BRANCH  42  43
DOCKED: ATOM     43  P   UNL d   1      14.323 -15.881  -4.959 -0.01 +0.03    +0.473 P 
DOCKED: ATOM     44  O   UNL d   1      13.721 -17.050  -5.659 -0.05 -0.01    -0.228 OA
DOCKED: BRANCH  43  45
DOCKED: ATOM     45  O   UNL d   1      15.914 -15.885  -4.935 -0.00 -0.01    -0.303 OA
DOCKED: ATOM     46  H   UNL d   1      16.281 -16.463  -5.633 +0.02 +0.01    +0.222 HD
DOCKED: ENDBRANCH  43  45
DOCKED: BRANCH  43  47
DOCKED: ATOM     47  O   UNL d   1      13.974 -15.753  -3.400 -0.08 -0.07    -0.303 OA
DOCKED: ATOM     48  H   UNL d   1      13.540 -14.890  -3.236 +0.10 +0.05    +0.222 HD
DOCKED: ENDBRANCH  43  47
DOCKED: ENDBRANCH  42  43
DOCKED: ENDBRANCH   4  42
DOCKED: TORSDOF 24
DOCKED: TER
DOCKED: ENDMDL
________________________________________________________________________________


	BEGINNING GENETIC ALGORITHM DOCKING 9 of 100
Run: 9 Seed: 1495274507 411330626 [ Run 9 of 100 GA/GALS ]
Beginning LAMARCKIAN GENETIC ALGORITHM (LGA), with a maximum of 25000000 energy evaluations.

Final-Value: -18.110


	FINAL GENETIC ALGORITHM DOCKED STATE
	_______________________________________________


Detailed state:  trans 0.212 -9.926 15.467 quatxyzw 0.914382 0.306754 0.206226 0.165161 center 0.035 0.082 -0.065 ntor 24 113.7279 100.0448 147.9693 -3.4123 162.7890 131.1602 -79.3373 -3.3256 149.1190 -21.6196 65.1772 -12.9302 -29.2566 80.4889 52.7267 -172.7414 -175.6577 -84.0318 28.2906 -36.1011 177.7549 -34.5163 12.7222 -167.6890
State:	  0.212  -9.926  15.467   0.927  0.311  0.209 160.987    113.73  100.04  147.97   -3.41  162.79  131.16  -79.34   -3.33  149.12  -21.62   65.18  -12.93  -29.26   80.49   52.73 -172.74 -175.66  -84.03   28.29  -36.10  177.75  -34.52   12.72 -167.69

DOCKED: MODEL        9
DOCKED: USER    Run = 9
DOCKED: USER    DPF = D:/Protein_go_brrr/autodock/final/mut_D99N/IHP/dock.dpf
DOCKED: USER  
DOCKED: USER    Estimated Free Energy of Binding    =   +2.94 kcal/mol  [=(1)+(2)+(3)-(4)]
DOCKED: USER    
DOCKED: USER    (1) Final Intermolecular Energy     =   -4.22 kcal/mol
DOCKED: USER        vdW + Hbond + desolv Energy     =   -3.77 kcal/mol
DOCKED: USER        Electrostatic Energy            =   -0.45 kcal/mol
DOCKED: USER    (2) Final Total Internal Energy     =  -13.89 kcal/mol
DOCKED: USER    (3) Torsional Free Energy           =   +7.16 kcal/mol
DOCKED: USER    (4) Unbound System's Energy  [=(2)] =  -13.89 kcal/mol
DOCKED: USER    
DOCKED: USER    
DOCKED: USER    NEWDPF move IHP_ideal_opt.pdbqt
DOCKED: USER    NEWDPF about 0.035000 0.082000 -0.065000
DOCKED: USER    NEWDPF tran0 0.212083 -9.926229 15.466939
DOCKED: USER    NEWDPF quaternion0 0.914382 0.306754 0.206226 0.165161
DOCKED: USER    NEWDPF axisangle0 0.927115 0.311025 0.209098 160.986867
DOCKED: USER    NEWDPF quat0 0.927115 0.311025 0.209098 160.986867
DOCKED: USER    NEWDPF dihe0 113.73 100.04 147.97 -3.41 162.79 131.16 -79.34 -3.33 149.12 -21.62 65.18 -12.93 -29.26 80.49 52.73 -172.74 -175.66 -84.03 28.29 -36.10 177.75 -34.52 12.72 -167.69 
DOCKED: USER  keepresnum = 1 
DOCKED: USER  
DOCKED: REMARK  24 active torsions:
DOCKED: REMARK  status: ('A' for Active; 'I' for Inactive)
DOCKED: REMARK    1  A    between atoms: C_1  and  O_7 
DOCKED: REMARK    2  A    between atoms: C_2  and  O_12 
DOCKED: REMARK    3  A    between atoms: C_3  and  O_17 
DOCKED: REMARK    4  A    between atoms: C_4  and  O_22 
DOCKED: REMARK    5  A    between atoms: C_5  and  O_27 
DOCKED: REMARK    6  A    between atoms: C_6  and  O_32 
DOCKED: REMARK    7  A    between atoms: O_7  and  P_8 
DOCKED: REMARK    8  A    between atoms: P_8  and  O_10 
DOCKED: REMARK    9  A    between atoms: P_8  and  O_11 
DOCKED: REMARK   10  A    between atoms: O_12  and  P_13 
DOCKED: REMARK   11  A    between atoms: P_13  and  O_15 
DOCKED: REMARK   12  A    between atoms: P_13  and  O_16 
DOCKED: REMARK   13  A    between atoms: O_17  and  P_18 
DOCKED: REMARK   14  A    between atoms: P_18  and  O_20 
DOCKED: REMARK   15  A    between atoms: P_18  and  O_21 
DOCKED: REMARK   16  A    between atoms: O_22  and  P_23 
DOCKED: REMARK   17  A    between atoms: P_23  and  O_25 
DOCKED: REMARK   18  A    between atoms: P_23  and  O_26 
DOCKED: REMARK   19  A    between atoms: O_27  and  P_28 
DOCKED: REMARK   20  A    between atoms: P_28  and  O_30 
DOCKED: REMARK   21  A    between atoms: P_28  and  O_31 
DOCKED: REMARK   22  A    between atoms: O_32  and  P_33 
DOCKED: REMARK   23  A    between atoms: P_33  and  O_35 
DOCKED: REMARK   24  A    between atoms: P_33  and  O_36 
DOCKED: USER                              x       y       z     vdW  Elec       q    Type
DOCKED: USER                           _______ _______ _______ _____ _____    ______ ____
DOCKED: ROOT
DOCKED: ATOM      1  C   UNL d   1       0.782  -8.297  15.542 -0.03 +0.00    +0.194 C 
DOCKED: ATOM      2  C   UNL d   1      -0.732  -8.462  15.403 -0.03 +0.01    +0.194 C 
DOCKED: ATOM      3  C   UNL d   1      -1.094  -9.542  14.382 -0.07 -0.03    +0.194 C 
DOCKED: ATOM      4  C   UNL d   1      -0.390 -10.872  14.639 -0.03 -0.03    +0.194 C 
DOCKED: ATOM      5  C   UNL d   1       1.106 -10.743  14.897 -0.03 -0.02    +0.194 C 
DOCKED: ATOM      6  C   UNL d   1       1.472  -9.622  15.871 -0.01 -0.01    +0.194 C 
DOCKED: ENDROOT
DOCKED: BRANCH   1   7
DOCKED: ATOM      7  O   UNL d   1       1.036  -7.403  16.628 -0.02 -0.05    -0.278 OA
DOCKED: BRANCH   7   8
DOCKED: ATOM      8  P   UNL d   1       1.237  -5.852  16.303 -0.05 +0.30    +0.473 P 
DOCKED: ATOM      9  O   UNL d   1       0.644  -5.395  15.016 -0.20 -0.14    -0.228 OA
DOCKED: BRANCH   8  10
DOCKED: ATOM     10  O   UNL d   1       0.626  -5.108  17.575 -0.56 -0.47    -0.303 OA
DOCKED: ATOM     11  H   UNL d   1      -0.221  -5.524  17.821 +0.02 +0.22    +0.222 HD
DOCKED: ENDBRANCH   8  10
DOCKED: BRANCH   8  12
DOCKED: ATOM     12  O   UNL d   1       2.794  -5.590  16.481 -0.05 -0.11    -0.303 OA
DOCKED: ATOM     13  H   UNL d   1       3.351  -6.192  15.936 +0.04 +0.01    +0.222 HD
DOCKED: ENDBRANCH   8  12
DOCKED: ENDBRANCH   7   8
DOCKED: ENDBRANCH   1   7
DOCKED: BRANCH   2  14
DOCKED: ATOM     14  O   UNL d   1      -1.280  -8.833  16.674 -0.00 -0.02    -0.278 OA
DOCKED: BRANCH  14  15
DOCKED: ATOM     15  P   UNL d   1      -1.858  -7.646  17.580 +0.00 +0.09    +0.473 P 
DOCKED: ATOM     16  O   UNL d   1      -3.173  -7.891  18.250 -0.01 -0.03    -0.228 OA
DOCKED: BRANCH  15  17
DOCKED: ATOM     17  O   UNL d   1      -0.685  -7.341  18.614 -0.00 -0.07    -0.303 OA
DOCKED: ATOM     18  H   UNL d   1       0.162  -7.192  18.152 +0.01 +0.06    +0.222 HD
DOCKED: ENDBRANCH  15  17
DOCKED: BRANCH  15  19
DOCKED: ATOM     19  O   UNL d   1      -1.795  -6.364  16.640 -0.06 -0.12    -0.303 OA
DOCKED: ATOM     20  H   UNL d   1      -0.878  -6.143  16.392 +0.05 +0.12    +0.222 HD
DOCKED: ENDBRANCH  15  19
DOCKED: ENDBRANCH  14  15
DOCKED: ENDBRANCH   2  14
DOCKED: BRANCH   6  21
DOCKED: ATOM     21  O   UNL d   1       2.875  -9.406  15.743 -0.02 +0.05    -0.278 OA
DOCKED: BRANCH  21  22
DOCKED: ATOM     22  P   UNL d   1       3.444  -8.630  14.471 -0.09 -0.19    +0.473 P 
DOCKED: ATOM     23  O   UNL d   1       3.428  -7.138  14.490 -0.14 +0.07    -0.228 OA
DOCKED: BRANCH  22  24
DOCKED: ATOM     24  O   UNL d   1       4.888  -9.280  14.311 -0.13 +0.26    -0.303 OA
DOCKED: ATOM     25  H   UNL d   1       4.829  -9.999  13.632 +0.03 -0.23    +0.222 HD
DOCKED: ENDBRANCH  22  24
DOCKED: BRANCH  22  26
DOCKED: ATOM     26  O   UNL d   1       2.633  -9.326  13.275 -0.23 +0.11    -0.303 OA
DOCKED: ATOM     27  H   UNL d   1       2.609 -10.293  13.424 +0.06 -0.07    +0.222 HD
DOCKED: ENDBRANCH  22  26
DOCKED: ENDBRANCH  21  22
DOCKED: ENDBRANCH   6  21
DOCKED: BRANCH   3  28
DOCKED: ATOM     28  O   UNL d   1      -2.482  -9.817  14.522 -0.05 +0.04    -0.278 OA
DOCKED: BRANCH  28  29
DOCKED: ATOM     29  P   UNL d   1      -3.565  -8.803  13.941 -0.05 -0.06    +0.473 P 
DOCKED: ATOM     30  O   UNL d   1      -4.928  -9.363  13.749 -0.08 -0.00    -0.228 OA
DOCKED: BRANCH  29  31
DOCKED: ATOM     31  O   UNL d   1      -3.414  -7.603  14.989 -0.03 -0.02    -0.303 OA
DOCKED: ATOM     32  H   UNL d   1      -3.104  -7.973  15.848 +0.04 +0.02    +0.222 HD
DOCKED: ENDBRANCH  29  31
DOCKED: BRANCH  29  33
DOCKED: ATOM     33  O   UNL d   1      -2.831  -8.235  12.648 -0.16 +0.10    -0.303 OA
DOCKED: ATOM     34  H   UNL d   1      -2.571  -8.992  12.067 -0.36 -0.23    +0.222 HD
DOCKED: ENDBRANCH  29  33
DOCKED: ENDBRANCH  28  29
DOCKED: ENDBRANCH   3  28
DOCKED: BRANCH   5  35
DOCKED: ATOM     35  O   UNL d   1       1.501 -11.972  15.503 -0.00 +0.03    -0.278 OA
DOCKED: BRANCH  35  36
DOCKED: ATOM     36  P   UNL d   1       2.921 -12.616  15.163 +0.00 -0.07    +0.473 P 
DOCKED: ATOM     37  O   UNL d   1       2.901 -14.069  14.806 -0.01 +0.02    -0.228 OA
DOCKED: BRANCH  36  38
DOCKED: ATOM     38  O   UNL d   1       3.441 -11.663  13.998 -0.09 +0.08    -0.303 OA
DOCKED: ATOM     39  H   UNL d   1       3.791 -10.836  14.393 +0.04 -0.08    +0.222 HD
DOCKED: ENDBRANCH  36  38
DOCKED: BRANCH  36  40
DOCKED: ATOM     40  O   UNL d   1       3.796 -12.194  16.423 +0.00 +0.04    -0.303 OA
DOCKED: ATOM     41  H   UNL d   1       3.891 -11.218  16.489 +0.02 -0.04    +0.222 HD
DOCKED: ENDBRANCH  36  40
DOCKED: ENDBRANCH  35  36
DOCKED: ENDBRANCH   5  35
DOCKED: BRANCH   4  42
DOCKED: ATOM     42  O   UNL d   1      -0.546 -11.660  13.454 -0.08 +0.07    -0.278 OA
DOCKED: BRANCH  42  43
DOCKED: ATOM     43  P   UNL d   1       0.433 -11.402  12.221 -0.02 -0.13    +0.473 P 
DOCKED: ATOM     44  O   UNL d   1       0.812  -9.991  11.929 -0.39 +0.06    -0.228 OA
DOCKED: BRANCH  43  45
DOCKED: ATOM     45  O   UNL d   1       1.665 -12.353  12.550 -0.53 +0.01    -0.303 OA
DOCKED: ATOM     46  H   UNL d   1       1.587 -12.745  13.442 +0.04 -0.03    +0.222 HD
DOCKED: ENDBRANCH  43  45
DOCKED: BRANCH  43  47
DOCKED: ATOM     47  O   UNL d   1      -0.276 -12.190  11.019 -0.23 +0.16    -0.303 OA
DOCKED: ATOM     48  H   UNL d   1       0.126 -11.912  10.170 -0.30 -0.14    +0.222 HD
DOCKED: ENDBRANCH  43  47
DOCKED: ENDBRANCH  42  43
DOCKED: ENDBRANCH   4  42
DOCKED: TORSDOF 24
DOCKED: TER
DOCKED: ENDMDL
________________________________________________________________________________


	BEGINNING GENETIC ALGORITHM DOCKING 10 of 100
Run: 10 Seed: 583812189 738119167 [ Run 10 of 100 GA/GALS ]
Beginning LAMARCKIAN GENETIC ALGORITHM (LGA), with a maximum of 25000000 energy evaluations.

Final-Value: -17.066


	FINAL GENETIC ALGORITHM DOCKED STATE
	_______________________________________________


Detailed state:  trans 6.395 -18.665 0.569 quatxyzw 0.654243 0.341492 0.030340 -0.674113 center 0.035 0.082 -0.065 ntor 24 -108.4479 41.8066 67.3693 13.6822 -20.0530 -179.9554 -42.6937 68.0931 99.3325 82.7038 12.5540 -110.7734 -153.7720 149.2032 -177.1481 -62.8203 94.5896 -72.9088 36.4406 -9.6957 169.9535 4.0840 -2.9534 -180.0000
State:	  6.395 -18.665   0.569   0.886  0.462  0.041 -95.229   -108.45   41.81   67.37   13.68  -20.05 -179.96  -42.69   68.09   99.33   82.70   12.55 -110.77 -153.77  149.20 -177.15  -62.82   94.59  -72.91   36.44   -9.70  169.95    4.08   -2.95 -180.00

DOCKED: MODEL       10
DOCKED: USER    Run = 10
DOCKED: USER    DPF = D:/Protein_go_brrr/autodock/final/mut_D99N/IHP/dock.dpf
DOCKED: USER  
DOCKED: USER    Estimated Free Energy of Binding    =   +4.32 kcal/mol  [=(1)+(2)+(3)-(4)]
DOCKED: USER    
DOCKED: USER    (1) Final Intermolecular Energy     =   -2.84 kcal/mol
DOCKED: USER        vdW + Hbond + desolv Energy     =   -2.79 kcal/mol
DOCKED: USER        Electrostatic Energy            =   -0.05 kcal/mol
DOCKED: USER    (2) Final Total Internal Energy     =  -14.23 kcal/mol
DOCKED: USER    (3) Torsional Free Energy           =   +7.16 kcal/mol
DOCKED: USER    (4) Unbound System's Energy  [=(2)] =  -14.23 kcal/mol
DOCKED: USER    
DOCKED: USER    
DOCKED: USER    NEWDPF move IHP_ideal_opt.pdbqt
DOCKED: USER    NEWDPF about 0.035000 0.082000 -0.065000
DOCKED: USER    NEWDPF tran0 6.394543 -18.664843 0.569474
DOCKED: USER    NEWDPF quaternion0 0.654243 0.341492 0.030340 -0.674113
DOCKED: USER    NEWDPF axisangle0 0.885755 0.462333 0.041076 -95.229397
DOCKED: USER    NEWDPF quat0 0.885755 0.462333 0.041076 -95.229397
DOCKED: USER    NEWDPF dihe0 -108.45 41.81 67.37 13.68 -20.05 -179.96 -42.69 68.09 99.33 82.70 12.55 -110.77 -153.77 149.20 -177.15 -62.82 94.59 -72.91 36.44 -9.70 169.95 4.08 -2.95 -180.00 
DOCKED: USER  keepresnum = 1 
DOCKED: USER  
DOCKED: REMARK  24 active torsions:
DOCKED: REMARK  status: ('A' for Active; 'I' for Inactive)
DOCKED: REMARK    1  A    between atoms: C_1  and  O_7 
DOCKED: REMARK    2  A    between atoms: C_2  and  O_12 
DOCKED: REMARK    3  A    between atoms: C_3  and  O_17 
DOCKED: REMARK    4  A    between atoms: C_4  and  O_22 
DOCKED: REMARK    5  A    between atoms: C_5  and  O_27 
DOCKED: REMARK    6  A    between atoms: C_6  and  O_32 
DOCKED: REMARK    7  A    between atoms: O_7  and  P_8 
DOCKED: REMARK    8  A    between atoms: P_8  and  O_10 
DOCKED: REMARK    9  A    between atoms: P_8  and  O_11 
DOCKED: REMARK   10  A    between atoms: O_12  and  P_13 
DOCKED: REMARK   11  A    between atoms: P_13  and  O_15 
DOCKED: REMARK   12  A    between atoms: P_13  and  O_16 
DOCKED: REMARK   13  A    between atoms: O_17  and  P_18 
DOCKED: REMARK   14  A    between atoms: P_18  and  O_20 
DOCKED: REMARK   15  A    between atoms: P_18  and  O_21 
DOCKED: REMARK   16  A    between atoms: O_22  and  P_23 
DOCKED: REMARK   17  A    between atoms: P_23  and  O_25 
DOCKED: REMARK   18  A    between atoms: P_23  and  O_26 
DOCKED: REMARK   19  A    between atoms: O_27  and  P_28 
DOCKED: REMARK   20  A    between atoms: P_28  and  O_30 
DOCKED: REMARK   21  A    between atoms: P_28  and  O_31 
DOCKED: REMARK   22  A    between atoms: O_32  and  P_33 
DOCKED: REMARK   23  A    between atoms: P_33  and  O_35 
DOCKED: REMARK   24  A    between atoms: P_33  and  O_36 
DOCKED: USER                              x       y       z     vdW  Elec       q    Type
DOCKED: USER                           _______ _______ _______ _____ _____    ______ ____
DOCKED: ROOT
DOCKED: ATOM      1  C   UNL d   1       7.388 -18.861  -0.830 -0.17 +0.00    +0.194 C 
DOCKED: ATOM      2  C   UNL d   1       5.923 -19.266  -0.998 -0.11 -0.00    +0.194 C 
DOCKED: ATOM      3  C   UNL d   1       5.411 -20.055   0.209 -0.07 -0.01    +0.194 C 
DOCKED: ATOM      4  C   UNL d   1       5.667 -19.352   1.540 -0.10 -0.02    +0.194 C 
DOCKED: ATOM      5  C   UNL d   1       7.088 -18.829   1.702 -0.17 -0.01    +0.194 C 
DOCKED: ATOM      6  C   UNL d   1       7.622 -18.093   0.471 -0.23 +0.00    +0.194 C 
DOCKED: ENDROOT
DOCKED: BRANCH   1   7
DOCKED: ATOM      7  O   UNL d   1       7.736 -17.989  -1.908 -0.23 +0.00    -0.278 OA
DOCKED: BRANCH   7   8
DOCKED: ATOM      8  P   UNL d   1       8.226 -18.639  -3.283 -0.06 +0.02    +0.473 P 
DOCKED: ATOM      9  O   UNL d   1       9.696 -18.605  -3.508 -0.13 -0.03    -0.228 OA
DOCKED: BRANCH   8  10
DOCKED: ATOM     10  O   UNL d   1       7.631 -20.119  -3.244 -0.03 -0.01    -0.303 OA
DOCKED: ATOM     11  H   UNL d   1       6.769 -20.137  -3.701 +0.04 +0.00    +0.222 HD
DOCKED: ENDBRANCH   8  10
DOCKED: BRANCH   8  12
DOCKED: ATOM     12  O   UNL d   1       7.335 -17.952  -4.405 -0.19 -0.01    -0.303 OA
DOCKED: ATOM     13  H   UNL d   1       6.659 -17.338  -4.038 +0.03 -0.01    +0.222 HD
DOCKED: ENDBRANCH   8  12
DOCKED: ENDBRANCH   7   8
DOCKED: ENDBRANCH   1   7
DOCKED: BRANCH   2  14
DOCKED: ATOM     14  O   UNL d   1       5.125 -18.084  -1.142 -0.09 -0.01    -0.278 OA
DOCKED: BRANCH  14  15
DOCKED: ATOM     15  P   UNL d   1       4.256 -17.967  -2.482 -0.10 -0.01    +0.473 P 
DOCKED: ATOM     16  O   UNL d   1       3.891 -16.585  -2.927 -0.25 +0.01    -0.228 OA
DOCKED: BRANCH  15  17
DOCKED: ATOM     17  O   UNL d   1       5.109 -18.760  -3.568 -0.08 +0.00    -0.303 OA
DOCKED: ATOM     18  H   UNL d   1       6.062 -18.731  -3.357 +0.07 -0.00    +0.222 HD
DOCKED: ENDBRANCH  15  17
DOCKED: BRANCH  15  19
DOCKED: ATOM     19  O   UNL d   1       3.033 -18.958  -2.250 -0.03 +0.01    -0.303 OA
DOCKED: ATOM     20  H   UNL d   1       3.328 -19.817  -1.896 +0.03 -0.01    +0.222 HD
DOCKED: ENDBRANCH  15  19
DOCKED: ENDBRANCH  14  15
DOCKED: ENDBRANCH   2  14
DOCKED: BRANCH   6  21
DOCKED: ATOM     21  O   UNL d   1       9.033 -17.976   0.641 -0.18 -0.06    -0.278 OA
DOCKED: BRANCH  21  22
DOCKED: ATOM     22  P   UNL d   1       9.946 -19.284   0.599 -0.07 +0.11    +0.473 P 
DOCKED: ATOM     23  O   UNL d   1      11.167 -19.318   1.455 -0.10 -0.08    -0.228 OA
DOCKED: BRANCH  22  24
DOCKED: ATOM     24  O   UNL d   1       8.886 -20.431   0.901 -0.02 -0.02    -0.303 OA
DOCKED: ATOM     25  H   UNL d   1       8.803 -20.523   1.885 +0.03 +0.01    +0.222 HD
DOCKED: ENDBRANCH  22  24
DOCKED: BRANCH  22  26
DOCKED: ATOM     26  O   UNL d   1      10.187 -19.462  -0.976 -0.06 -0.06    -0.303 OA
DOCKED: ATOM     27  H   UNL d   1       9.805 -18.695  -1.449 +0.06 +0.04    +0.222 HD
DOCKED: ENDBRANCH  22  26
DOCKED: ENDBRANCH  21  22
DOCKED: ENDBRANCH   6  21
DOCKED: BRANCH   3  28
DOCKED: ATOM     28  O   UNL d   1       3.997 -20.144   0.095 -0.03 +0.01    -0.278 OA
DOCKED: BRANCH  28  29
DOCKED: ATOM     29  P   UNL d   1       3.294 -21.556  -0.124 +0.00 -0.01    +0.473 P 
DOCKED: ATOM     30  O   UNL d   1       3.134 -21.980  -1.539 -0.00 +0.00    -0.228 OA
DOCKED: BRANCH  29  31
DOCKED: ATOM     31  O   UNL d   1       4.215 -22.474   0.809 -0.00 +0.01    -0.303 OA
DOCKED: ATOM     32  H   UNL d   1       4.815 -21.891   1.329 +0.01 -0.01    +0.222 HD
DOCKED: ENDBRANCH  29  31
DOCKED: BRANCH  29  33
DOCKED: ATOM     33  O   UNL d   1       1.963 -21.404   0.736 -0.00 +0.01    -0.303 OA
DOCKED: ATOM     34  H   UNL d   1       1.186 -21.628   0.168 +0.00 -0.01    +0.222 HD
DOCKED: ENDBRANCH  29  33
DOCKED: ENDBRANCH  28  29
DOCKED: ENDBRANCH   3  28
DOCKED: BRANCH   5  35
DOCKED: ATOM     35  O   UNL d   1       7.033 -17.881   2.767 -0.16 +0.05    -0.278 OA
DOCKED: BRANCH  35  36
DOCKED: ATOM     36  P   UNL d   1       8.036 -17.998   4.001 -0.14 -0.01    +0.473 P 
DOCKED: ATOM     37  O   UNL d   1       8.606 -16.706   4.494 -0.19 -0.01    -0.228 OA
DOCKED: BRANCH  36  38
DOCKED: ATOM     38  O   UNL d   1       7.147 -18.772   5.072 -0.05 +0.02    -0.303 OA
DOCKED: ATOM     39  H   UNL d   1       6.504 -19.346   4.601 +0.03 -0.02    +0.222 HD
DOCKED: ENDBRANCH  36  38
DOCKED: BRANCH  36  40
DOCKED: ATOM     40  O   UNL d   1       9.070 -19.097   3.496 -0.07 -0.02    -0.303 OA
DOCKED: ATOM     41  H   UNL d   1       9.303 -18.969   2.550 +0.05 +0.03    +0.222 HD
DOCKED: ENDBRANCH  36  40
DOCKED: ENDBRANCH  35  36
DOCKED: ENDBRANCH   5  35
DOCKED: BRANCH   4  42
DOCKED: ATOM     42  O   UNL d   1       5.455 -20.323   2.570 -0.03 +0.02    -0.278 OA
DOCKED: BRANCH  42  43
DOCKED: ATOM     43  P   UNL d   1       6.487 -21.531   2.714 -0.00 -0.01    +0.473 P 
DOCKED: ATOM     44  O   UNL d   1       7.216 -21.962   1.489 -0.01 +0.00    -0.228 OA
DOCKED: BRANCH  43  45
DOCKED: ATOM     45  O   UNL d   1       7.433 -21.043   3.897 -0.01 +0.01    -0.303 OA
DOCKED: ATOM     46  H   UNL d   1       7.888 -20.207   3.670 +0.03 -0.00    +0.222 HD
DOCKED: ENDBRANCH  43  45
DOCKED: BRANCH  43  47
DOCKED: ATOM     47  O   UNL d   1       5.620 -22.668   3.439 -0.00 +0.01    -0.303 OA
DOCKED: ATOM     48  H   UNL d   1       4.929 -22.988   2.823 +0.00 -0.01    +0.222 HD
DOCKED: ENDBRANCH  43  47
DOCKED: ENDBRANCH  42  43
DOCKED: ENDBRANCH   4  42
DOCKED: TORSDOF 24
DOCKED: TER
DOCKED: ENDMDL
________________________________________________________________________________


	BEGINNING GENETIC ALGORITHM DOCKING 11 of 100
Run: 11 Seed: 437456063 1248697712 [ Run 11 of 100 GA/GALS ]
Beginning LAMARCKIAN GENETIC ALGORITHM (LGA), with a maximum of 25000000 energy evaluations.

Final-Value: -18.781


	FINAL GENETIC ALGORITHM DOCKED STATE
	_______________________________________________


Detailed state:  trans 8.778 -17.434 -16.270 quatxyzw -0.375518 -0.447006 0.684766 0.436197 center 0.035 0.082 -0.065 ntor 24 -179.8784 13.4825 -179.8656 142.6312 115.2259 101.7886 -28.2073 -137.4482 39.4273 50.9117 -180.0000 72.9972 -107.7680 96.5669 95.2764 147.2723 161.1709 74.8763 29.5201 -27.2231 -41.2647 -45.1700 -1.7495 -36.6331
State:	  8.778 -17.434 -16.270  -0.417 -0.497  0.761 128.277   -179.88   13.48 -179.87  142.63  115.23  101.79  -28.21 -137.45   39.43   50.91 -180.00   73.00 -107.77   96.57   95.28  147.27  161.17   74.88   29.52  -27.22  -41.26  -45.17   -1.75  -36.63

DOCKED: MODEL       11
DOCKED: USER    Run = 11
DOCKED: USER    DPF = D:/Protein_go_brrr/autodock/final/mut_D99N/IHP/dock.dpf
DOCKED: USER  
DOCKED: USER    Estimated Free Energy of Binding    =   +3.54 kcal/mol  [=(1)+(2)+(3)-(4)]
DOCKED: USER    
DOCKED: USER    (1) Final Intermolecular Energy     =   -3.62 kcal/mol
DOCKED: USER        vdW + Hbond + desolv Energy     =   -3.59 kcal/mol
DOCKED: USER        Electrostatic Energy            =   -0.03 kcal/mol
DOCKED: USER    (2) Final Total Internal Energy     =  -15.16 kcal/mol
DOCKED: USER    (3) Torsional Free Energy           =   +7.16 kcal/mol
DOCKED: USER    (4) Unbound System's Energy  [=(2)] =  -15.16 kcal/mol
DOCKED: USER    
DOCKED: USER    
DOCKED: USER    NEWDPF move IHP_ideal_opt.pdbqt
DOCKED: USER    NEWDPF about 0.035000 0.082000 -0.065000
DOCKED: USER    NEWDPF tran0 8.777817 -17.433526 -16.269589
DOCKED: USER    NEWDPF quaternion0 -0.375518 -0.447006 0.684766 0.436197
DOCKED: USER    NEWDPF axisangle0 -0.417312 -0.496755 0.760977 128.277009
DOCKED: USER    NEWDPF quat0 -0.417312 -0.496755 0.760977 128.277009
DOCKED: USER    NEWDPF dihe0 -179.88 13.48 -179.87 142.63 115.23 101.79 -28.21 -137.45 39.43 50.91 -180.00 73.00 -107.77 96.57 95.28 147.27 161.17 74.88 29.52 -27.22 -41.26 -45.17 -1.75 -36.63 
DOCKED: USER  keepresnum = 1 
DOCKED: USER  
DOCKED: REMARK  24 active torsions:
DOCKED: REMARK  status: ('A' for Active; 'I' for Inactive)
DOCKED: REMARK    1  A    between atoms: C_1  and  O_7 
DOCKED: REMARK    2  A    between atoms: C_2  and  O_12 
DOCKED: REMARK    3  A    between atoms: C_3  and  O_17 
DOCKED: REMARK    4  A    between atoms: C_4  and  O_22 
DOCKED: REMARK    5  A    between atoms: C_5  and  O_27 
DOCKED: REMARK    6  A    between atoms: C_6  and  O_32 
DOCKED: REMARK    7  A    between atoms: O_7  and  P_8 
DOCKED: REMARK    8  A    between atoms: P_8  and  O_10 
DOCKED: REMARK    9  A    between atoms: P_8  and  O_11 
DOCKED: REMARK   10  A    between atoms: O_12  and  P_13 
DOCKED: REMARK   11  A    between atoms: P_13  and  O_15 
DOCKED: REMARK   12  A    between atoms: P_13  and  O_16 
DOCKED: REMARK   13  A    between atoms: O_17  and  P_18 
DOCKED: REMARK   14  A    between atoms: P_18  and  O_20 
DOCKED: REMARK   15  A    between atoms: P_18  and  O_21 
DOCKED: REMARK   16  A    between atoms: O_22  and  P_23 
DOCKED: REMARK   17  A    between atoms: P_23  and  O_25 
DOCKED: REMARK   18  A    between atoms: P_23  and  O_26 
DOCKED: REMARK   19  A    between atoms: O_27  and  P_28 
DOCKED: REMARK   20  A    between atoms: P_28  and  O_30 
DOCKED: REMARK   21  A    between atoms: P_28  and  O_31 
DOCKED: REMARK   22  A    between atoms: O_32  and  P_33 
DOCKED: REMARK   23  A    between atoms: P_33  and  O_35 
DOCKED: REMARK   24  A    between atoms: P_33  and  O_36 
DOCKED: USER                              x       y       z     vdW  Elec       q    Type
DOCKED: USER                           _______ _______ _______ _____ _____    ______ ____
DOCKED: ROOT
DOCKED: ATOM      1  C   UNL d   1       7.428 -18.310 -16.898 -0.07 -0.00    +0.194 C 
DOCKED: ATOM      2  C   UNL d   1       7.145 -17.459 -15.658 -0.13 +0.01    +0.194 C 
DOCKED: ATOM      3  C   UNL d   1       8.257 -17.590 -14.616 -0.17 -0.01    +0.194 C 
DOCKED: ATOM      4  C   UNL d   1       9.650 -17.332 -15.187 -0.12 -0.03    +0.194 C 
DOCKED: ATOM      5  C   UNL d   1       9.934 -18.072 -16.487 -0.10 -0.03    +0.194 C 
DOCKED: ATOM      6  C   UNL d   1       8.795 -17.993 -17.506 -0.07 -0.01    +0.194 C 
DOCKED: ENDROOT
DOCKED: BRANCH   1   7
DOCKED: ATOM      7  O   UNL d   1       6.441 -18.001 -17.885 -0.05 -0.00    -0.278 OA
DOCKED: BRANCH   7   8
DOCKED: ATOM      8  P   UNL d   1       5.123 -18.902 -17.948 -0.00 +0.01    +0.473 P 
DOCKED: ATOM      9  O   UNL d   1       5.363 -20.361 -18.120 -0.00 -0.00    -0.228 OA
DOCKED: BRANCH   8  10
DOCKED: ATOM     10  O   UNL d   1       4.349 -18.549 -16.598 -0.01 -0.02    -0.303 OA
DOCKED: ATOM     11  H   UNL d   1       4.642 -17.678 -16.272 +0.03 +0.03    +0.222 HD
DOCKED: ENDBRANCH   8  10
DOCKED: BRANCH   8  12
DOCKED: ATOM     12  O   UNL d   1       4.205 -18.215 -19.048 -0.00 -0.01    -0.303 OA
DOCKED: ATOM     13  H   UNL d   1       4.320 -17.239 -19.091 +0.02 +0.01    +0.222 HD
DOCKED: ENDBRANCH   8  12
DOCKED: ENDBRANCH   7   8
DOCKED: ENDBRANCH   1   7
DOCKED: BRANCH   2  14
DOCKED: ATOM     14  O   UNL d   1       7.043 -16.084 -16.048 -0.10 -0.03    -0.278 OA
DOCKED: BRANCH  14  15
DOCKED: ATOM     15  P   UNL d   1       5.568 -15.464 -16.108 -0.16 +0.11    +0.473 P 
DOCKED: ATOM     16  O   UNL d   1       5.448 -13.991 -15.871 -0.23 -0.08    -0.228 OA
DOCKED: BRANCH  15  17
DOCKED: ATOM     17  O   UNL d   1       5.020 -15.906 -17.537 -0.07 -0.04    -0.303 OA
DOCKED: ATOM     18  H   UNL d   1       4.642 -16.805 -17.506 +0.04 +0.03    +0.222 HD
DOCKED: ENDBRANCH  15  17
DOCKED: BRANCH  15  19
DOCKED: ATOM     19  O   UNL d   1       4.710 -16.388 -15.138 -0.10 -0.09    -0.303 OA
DOCKED: ATOM     20  H   UNL d   1       4.805 -16.118 -14.206 +0.07 +0.08    +0.222 HD
DOCKED: ENDBRANCH  15  19
DOCKED: ENDBRANCH  14  15
DOCKED: ENDBRANCH   2  14
DOCKED: BRANCH   6  21
DOCKED: ATOM     21  O   UNL d   1       9.055 -18.989 -18.493 -0.04 +0.02    -0.278 OA
DOCKED: BRANCH  21  22
DOCKED: ATOM     22  P   UNL d   1       8.700 -18.701 -20.021 -0.03 -0.03    +0.473 P 
DOCKED: ATOM     23  O   UNL d   1       9.781 -18.862 -21.037 -0.02 +0.02    -0.228 OA
DOCKED: BRANCH  22  24
DOCKED: ATOM     24  O   UNL d   1       7.432 -19.636 -20.243 -0.01 +0.01    -0.303 OA
DOCKED: ATOM     25  H   UNL d   1       6.795 -19.473 -19.501 +0.01 -0.00    +0.222 HD
DOCKED: ENDBRANCH  22  24
DOCKED: BRANCH  22  26
DOCKED: ATOM     26  O   UNL d   1       8.029 -17.248 -19.932 -0.07 +0.02    -0.303 OA
DOCKED: ATOM     27  H   UNL d   1       7.144 -17.327 -19.522 +0.02 -0.00    +0.222 HD
DOCKED: ENDBRANCH  22  26
DOCKED: ENDBRANCH  21  22
DOCKED: ENDBRANCH   6  21
DOCKED: BRANCH   3  28
DOCKED: ATOM     28  O   UNL d   1       8.054 -16.573 -13.643 -0.25 +0.02    -0.278 OA
DOCKED: BRANCH  28  29
DOCKED: ATOM     29  P   UNL d   1       6.763 -16.597 -12.711 -0.21 +0.03    +0.473 P 
DOCKED: ATOM     30  O   UNL d   1       7.027 -16.648 -11.251 -0.24 -0.02    -0.228 OA
DOCKED: BRANCH  29  31
DOCKED: ATOM     31  O   UNL d   1       5.994 -15.307 -13.266 -0.26 -0.07    -0.303 OA
DOCKED: ATOM     32  H   UNL d   1       6.300 -15.130 -14.185 +0.07 +0.04    +0.222 HD
DOCKED: ENDBRANCH  29  31
DOCKED: BRANCH  29  33
DOCKED: ATOM     33  O   UNL d   1       5.925 -17.800 -13.333 -0.05 -0.03    -0.303 OA
DOCKED: ATOM     34  H   UNL d   1       5.472 -17.485 -14.154 +0.06 +0.03    +0.222 HD
DOCKED: ENDBRANCH  29  33
DOCKED: ENDBRANCH  28  29
DOCKED: ENDBRANCH   3  28
DOCKED: BRANCH   5  35
DOCKED: ATOM     35  O   UNL d   1      11.061 -17.418 -17.066 -0.15 +0.11    -0.278 OA
DOCKED: BRANCH  35  36
DOCKED: ATOM     36  P   UNL d   1      12.328 -18.265 -17.537 -0.06 -0.19    +0.473 P 
DOCKED: ATOM     37  O   UNL d   1      13.627 -17.523 -17.562 -0.10 +0.17    -0.228 OA
DOCKED: BRANCH  36  38
DOCKED: ATOM     38  O   UNL d   1      12.295 -19.493 -16.523 -0.01 +0.06    -0.303 OA
DOCKED: ATOM     39  H   UNL d   1      11.910 -19.195 -15.671 +0.04 -0.04    +0.222 HD
DOCKED: ENDBRANCH  36  38
DOCKED: BRANCH  36  40
DOCKED: ATOM     40  O   UNL d   1      11.828 -18.890 -18.911 -0.02 +0.07    -0.303 OA
DOCKED: ATOM     41  H   UNL d   1      10.970 -18.503 -19.196 +0.03 -0.05    +0.222 HD
DOCKED: ENDBRANCH  36  40
DOCKED: ENDBRANCH  35  36
DOCKED: ENDBRANCH   5  35
DOCKED: BRANCH   4  42
DOCKED: ATOM     42  O   UNL d   1      10.590 -17.808 -14.217 -0.15 +0.03    -0.278 OA
DOCKED: BRANCH  42  43
DOCKED: ATOM     43  P   UNL d   1      11.994 -17.066 -14.076 -0.21 -0.10    +0.473 P 
DOCKED: ATOM     44  O   UNL d   1      12.329 -16.476 -12.750 -0.29 +0.01    -0.228 OA
DOCKED: BRANCH  43  45
DOCKED: ATOM     45  O   UNL d   1      13.025 -18.171 -14.575 -0.06 +0.07    -0.303 OA
DOCKED: ATOM     46  H   UNL d   1      13.382 -17.953 -15.460 +0.05 -0.08    +0.222 HD
DOCKED: ENDBRANCH  43  45
DOCKED: BRANCH  43  47
DOCKED: ATOM     47  O   UNL d   1      11.993 -16.041 -15.309 -0.25 +0.22    -0.303 OA
DOCKED: ATOM     48  H   UNL d   1      12.626 -16.352 -15.988 -0.17 -0.26    +0.222 HD
DOCKED: ENDBRANCH  43  47
DOCKED: ENDBRANCH  42  43
DOCKED: ENDBRANCH   4  42
DOCKED: TORSDOF 24
DOCKED: TER
DOCKED: ENDMDL
________________________________________________________________________________


	BEGINNING GENETIC ALGORITHM DOCKING 12 of 100
Run: 12 Seed: 1368291151 2100000662 [ Run 12 of 100 GA/GALS ]
Beginning LAMARCKIAN GENETIC ALGORITHM (LGA), with a maximum of 25000000 energy evaluations.

Final-Value: -19.602


	FINAL GENETIC ALGORITHM DOCKED STATE
	_______________________________________________


Detailed state:  trans -12.345 14.298 -7.096 quatxyzw -0.050056 -0.491806 0.741226 0.454099 center 0.035 0.082 -0.065 ntor 24 95.5111 104.6942 128.2252 11.1548 3.4465 -180.0000 -121.0052 17.3334 146.9129 -3.7850 44.1318 -73.9552 -72.6335 -136.4112 -177.1228 55.8377 113.8448 -31.0466 -148.4984 -2.8584 13.4411 158.4635 -43.7398 171.6186
State:	-12.345  14.298  -7.096  -0.056 -0.552  0.832 125.986     95.51  104.69  128.23   11.15    3.45 -180.00 -121.01   17.33  146.91   -3.78   44.13  -73.96  -72.63 -136.41 -177.12   55.84  113.84  -31.05 -148.50   -2.86   13.44  158.46  -43.74  171.62

DOCKED: MODEL       12
DOCKED: USER    Run = 12
DOCKED: USER    DPF = D:/Protein_go_brrr/autodock/final/mut_D99N/IHP/dock.dpf
DOCKED: USER  
DOCKED: USER    Estimated Free Energy of Binding    =   +2.45 kcal/mol  [=(1)+(2)+(3)-(4)]
DOCKED: USER    
DOCKED: USER    (1) Final Intermolecular Energy     =   -4.71 kcal/mol
DOCKED: USER        vdW + Hbond + desolv Energy     =   -4.75 kcal/mol
DOCKED: USER        Electrostatic Energy            =   +0.04 kcal/mol
DOCKED: USER    (2) Final Total Internal Energy     =  -14.89 kcal/mol
DOCKED: USER    (3) Torsional Free Energy           =   +7.16 kcal/mol
DOCKED: USER    (4) Unbound System's Energy  [=(2)] =  -14.89 kcal/mol
DOCKED: USER    
DOCKED: USER    
DOCKED: USER    NEWDPF move IHP_ideal_opt.pdbqt
DOCKED: USER    NEWDPF about 0.035000 0.082000 -0.065000
DOCKED: USER    NEWDPF tran0 -12.345263 14.298364 -7.095799
DOCKED: USER    NEWDPF quaternion0 -0.050056 -0.491806 0.741226 0.454099
DOCKED: USER    NEWDPF axisangle0 -0.056183 -0.552001 0.831949 125.986050
DOCKED: USER    NEWDPF quat0 -0.056183 -0.552001 0.831949 125.986050
DOCKED: USER    NEWDPF dihe0 95.51 104.69 128.23 11.15 3.45 -180.00 -121.01 17.33 146.91 -3.78 44.13 -73.96 -72.63 -136.41 -177.12 55.84 113.84 -31.05 -148.50 -2.86 13.44 158.46 -43.74 171.62 
DOCKED: USER  keepresnum = 1 
DOCKED: USER  
DOCKED: REMARK  24 active torsions:
DOCKED: REMARK  status: ('A' for Active; 'I' for Inactive)
DOCKED: REMARK    1  A    between atoms: C_1  and  O_7 
DOCKED: REMARK    2  A    between atoms: C_2  and  O_12 
DOCKED: REMARK    3  A    between atoms: C_3  and  O_17 
DOCKED: REMARK    4  A    between atoms: C_4  and  O_22 
DOCKED: REMARK    5  A    between atoms: C_5  and  O_27 
DOCKED: REMARK    6  A    between atoms: C_6  and  O_32 
DOCKED: REMARK    7  A    between atoms: O_7  and  P_8 
DOCKED: REMARK    8  A    between atoms: P_8  and  O_10 
DOCKED: REMARK    9  A    between atoms: P_8  and  O_11 
DOCKED: REMARK   10  A    between atoms: O_12  and  P_13 
DOCKED: REMARK   11  A    between atoms: P_13  and  O_15 
DOCKED: REMARK   12  A    between atoms: P_13  and  O_16 
DOCKED: REMARK   13  A    between atoms: O_17  and  P_18 
DOCKED: REMARK   14  A    between atoms: P_18  and  O_20 
DOCKED: REMARK   15  A    between atoms: P_18  and  O_21 
DOCKED: REMARK   16  A    between atoms: O_22  and  P_23 
DOCKED: REMARK   17  A    between atoms: P_23  and  O_25 
DOCKED: REMARK   18  A    between atoms: P_23  and  O_26 
DOCKED: REMARK   19  A    between atoms: O_27  and  P_28 
DOCKED: REMARK   20  A    between atoms: P_28  and  O_30 
DOCKED: REMARK   21  A    between atoms: P_28  and  O_31 
DOCKED: REMARK   22  A    between atoms: O_32  and  P_33 
DOCKED: REMARK   23  A    between atoms: P_33  and  O_35 
DOCKED: REMARK   24  A    between atoms: P_33  and  O_36 
DOCKED: USER                              x       y       z     vdW  Elec       q    Type
DOCKED: USER                           _______ _______ _______ _____ _____    ______ ____
DOCKED: ROOT
DOCKED: ATOM      1  C   UNL d   1     -13.422  12.996  -6.737 -0.27 -0.02    +0.194 C 
DOCKED: ATOM      2  C   UNL d   1     -13.413  14.144  -5.726 -0.12 -0.01    +0.194 C 
DOCKED: ATOM      3  C   UNL d   1     -11.991  14.621  -5.422 -0.20 -0.00    +0.194 C 
DOCKED: ATOM      4  C   UNL d   1     -11.186  14.950  -6.677 -0.10 -0.00    +0.194 C 
DOCKED: ATOM      5  C   UNL d   1     -11.261  13.882  -7.760 -0.16 -0.01    +0.194 C 
DOCKED: ATOM      6  C   UNL d   1     -12.676  13.361  -8.021 -0.19 -0.03    +0.194 C 
DOCKED: ENDROOT
DOCKED: BRANCH   1   7
DOCKED: ATOM      7  O   UNL d   1     -14.780  12.728  -7.095 -0.53 +0.06    -0.278 OA
DOCKED: BRANCH   7   8
DOCKED: ATOM      8  P   UNL d   1     -15.414  13.530  -8.323 -0.07 -0.11    +0.473 P 
DOCKED: ATOM      9  O   UNL d   1     -14.724  14.803  -8.668 -0.03 +0.03    -0.228 OA
DOCKED: BRANCH   8  10
DOCKED: ATOM     10  O   UNL d   1     -15.416  12.472  -9.517 -0.08 +0.12    -0.303 OA
DOCKED: ATOM     11  H   UNL d   1     -14.499  12.213  -9.725 +0.06 -0.09    +0.222 HD
DOCKED: ENDBRANCH   8  10
DOCKED: BRANCH   8  12
DOCKED: ATOM     12  O   UNL d   1     -16.961  13.650  -7.982 -0.06 +0.07    -0.303 OA
DOCKED: ATOM     13  H   UNL d   1     -17.135  14.122  -7.137 +0.05 -0.04    +0.222 HD
DOCKED: ENDBRANCH   8  12
DOCKED: ENDBRANCH   7   8
DOCKED: ENDBRANCH   1   7
DOCKED: BRANCH   2  14
DOCKED: ATOM     14  O   UNL d   1     -14.159  15.244  -6.262 -0.10 +0.03    -0.278 OA
DOCKED: BRANCH  14  15
DOCKED: ATOM     15  P   UNL d   1     -15.297  15.864  -5.322 -0.09 -0.05    +0.473 P 
DOCKED: ATOM     16  O   UNL d   1     -16.606  15.141  -5.285 -0.13 +0.04    -0.228 OA
DOCKED: BRANCH  15  17
DOCKED: ATOM     17  O   UNL d   1     -14.605  15.962  -3.890 -0.14 +0.02    -0.303 OA
DOCKED: ATOM     18  H   UNL d   1     -13.648  16.140  -3.973 +0.04 -0.00    +0.222 HD
DOCKED: ENDBRANCH  15  17
DOCKED: BRANCH  15  19
DOCKED: ATOM     19  O   UNL d   1     -15.371  17.396  -5.746 -0.01 +0.02    -0.303 OA
DOCKED: ATOM     20  H   UNL d   1     -14.486  17.804  -5.780 +0.02 -0.01    +0.222 HD
DOCKED: ENDBRANCH  15  19
DOCKED: ENDBRANCH  14  15
DOCKED: ENDBRANCH   2  14
DOCKED: BRANCH   6  21
DOCKED: ATOM     21  O   UNL d   1     -12.540  12.163  -8.781 -0.25 +0.07    -0.278 OA
DOCKED: BRANCH  21  22
DOCKED: ATOM     22  P   UNL d   1     -12.494  12.236 -10.374 -0.15 -0.15    +0.473 P 
DOCKED: ATOM     23  O   UNL d   1     -13.085  11.107 -11.149 -0.29 +0.11    -0.228 OA
DOCKED: BRANCH  22  24
DOCKED: ATOM     24  O   UNL d   1     -13.157  13.656 -10.653 -0.07 +0.08    -0.303 OA
DOCKED: ATOM     25  H   UNL d   1     -14.090  13.632 -10.320 +0.06 -0.05    +0.222 HD
DOCKED: ENDBRANCH  22  24
DOCKED: BRANCH  22  26
DOCKED: ATOM     26  O   UNL d   1     -10.942  12.537 -10.642 -0.22 +0.08    -0.303 OA
DOCKED: ATOM     27  H   UNL d   1     -10.456  12.496  -9.793 +0.10 -0.03    +0.222 HD
DOCKED: ENDBRANCH  22  26
DOCKED: ENDBRANCH  21  22
DOCKED: ENDBRANCH   6  21
DOCKED: BRANCH   3  28
DOCKED: ATOM     28  O   UNL d   1     -12.094  15.845  -4.707 -0.09 -0.00    -0.278 OA
DOCKED: BRANCH  28  29
DOCKED: ATOM     29  P   UNL d   1     -12.109  17.234  -5.487 +0.00 +0.00    +0.473 P 
DOCKED: ATOM     30  O   UNL d   1     -12.690  17.194  -6.854 -0.01 +0.01    -0.228 OA
DOCKED: BRANCH  29  31
DOCKED: ATOM     31  O   UNL d   1     -12.852  18.152  -4.408 -0.01 -0.00    -0.303 OA
DOCKED: ATOM     32  H   UNL d   1     -13.793  17.867  -4.347 +0.02 -0.00    +0.222 HD
DOCKED: ENDBRANCH  29  31
DOCKED: BRANCH  29  33
DOCKED: ATOM     33  O   UNL d   1     -10.593  17.703  -5.364 -0.00 -0.02    -0.303 OA
DOCKED: ATOM     34  H   UNL d   1     -10.043  17.183  -5.999 +0.03 +0.01    +0.222 HD
DOCKED: ENDBRANCH  29  33
DOCKED: ENDBRANCH  28  29
DOCKED: ENDBRANCH   3  28
DOCKED: BRANCH   5  35
DOCKED: ATOM     35  O   UNL d   1     -10.819  14.515  -8.959 -0.07 +0.02    -0.278 OA
DOCKED: BRANCH  35  36
DOCKED: ATOM     36  P   UNL d   1      -9.265  14.564  -9.318 -0.06 -0.02    +0.473 P 
DOCKED: ATOM     37  O   UNL d   1      -8.944  14.771 -10.764 -0.07 +0.02    -0.228 OA
DOCKED: BRANCH  36  38
DOCKED: ATOM     38  O   UNL d   1      -8.745  15.724  -8.359 -0.03 -0.00    -0.303 OA
DOCKED: ATOM     39  H   UNL d   1      -8.668  15.374  -7.445 +0.07 +0.01    +0.222 HD
DOCKED: ENDBRANCH  36  38
DOCKED: BRANCH  36  40
DOCKED: ATOM     40  O   UNL d   1      -8.718  13.233  -8.641 -0.20 -0.00    -0.303 OA
DOCKED: ATOM     41  H   UNL d   1      -9.067  13.119  -7.729 +0.11 +0.00    +0.222 HD
DOCKED: ENDBRANCH  36  40
DOCKED: ENDBRANCH  35  36
DOCKED: ENDBRANCH   5  35
DOCKED: BRANCH   4  42
DOCKED: ATOM     42  O   UNL d   1      -9.816  15.049  -6.276 -0.08 -0.01    -0.278 OA
DOCKED: BRANCH  42  43
DOCKED: ATOM     43  P   UNL d   1      -9.108  13.775  -5.628 -0.26 +0.03    +0.473 P 
DOCKED: ATOM     44  O   UNL d   1      -9.792  12.460  -5.776 -0.44 +0.02    -0.228 OA
DOCKED: BRANCH  43  45
DOCKED: ATOM     45  O   UNL d   1      -7.650  13.825  -6.263 -0.28 -0.06    -0.303 OA
DOCKED: ATOM     46  H   UNL d   1      -7.658  14.246  -7.146 +0.09 +0.02    +0.222 HD
DOCKED: ENDBRANCH  43  45
DOCKED: BRANCH  43  47
DOCKED: ATOM     47  O   UNL d   1      -8.823  14.241  -4.121 -0.29 -0.04    -0.303 OA
DOCKED: ATOM     48  H   UNL d   1      -9.464  13.805  -3.522 -0.24 -0.04    +0.222 HD
DOCKED: ENDBRANCH  43  47
DOCKED: ENDBRANCH  42  43
DOCKED: ENDBRANCH   4  42
DOCKED: TORSDOF 24
DOCKED: TER
DOCKED: ENDMDL
________________________________________________________________________________


	BEGINNING GENETIC ALGORITHM DOCKING 13 of 100
Run: 13 Seed: 569382461 1845195021 [ Run 13 of 100 GA/GALS ]
Beginning LAMARCKIAN GENETIC ALGORITHM (LGA), with a maximum of 25000000 energy evaluations.

Final-Value: -18.327


	FINAL GENETIC ALGORITHM DOCKED STATE
	_______________________________________________


Detailed state:  trans 19.706 -7.809 7.427 quatxyzw -0.669107 -0.727631 -0.150890 -0.009077 center 0.035 0.082 -0.065 ntor 24 161.4496 111.8640 -163.9917 -62.8097 67.8464 -106.8569 -47.0183 135.6963 -31.6376 87.3442 19.0776 -180.0000 -26.0047 176.7961 -72.1015 176.3913 -15.4392 159.3501 -16.3748 -27.3970 -11.8715 -24.3929 -14.0564 -10.7485
State:	 19.706  -7.809   7.427  -0.669 -0.728 -0.151 -178.960    161.45  111.86 -163.99  -62.81   67.85 -106.86  -47.02  135.70  -31.64   87.34   19.08 -180.00  -26.00  176.80  -72.10  176.39  -15.44  159.35  -16.37  -27.40  -11.87  -24.39  -14.06  -10.75

DOCKED: MODEL       13
DOCKED: USER    Run = 13
DOCKED: USER    DPF = D:/Protein_go_brrr/autodock/final/mut_D99N/IHP/dock.dpf
DOCKED: USER  
DOCKED: USER    Estimated Free Energy of Binding    =   +1.20 kcal/mol  [=(1)+(2)+(3)-(4)]
DOCKED: USER    
DOCKED: USER    (1) Final Intermolecular Energy     =   -5.96 kcal/mol
DOCKED: USER        vdW + Hbond + desolv Energy     =   -5.85 kcal/mol
DOCKED: USER        Electrostatic Energy            =   -0.10 kcal/mol
DOCKED: USER    (2) Final Total Internal Energy     =  -12.37 kcal/mol
DOCKED: USER    (3) Torsional Free Energy           =   +7.16 kcal/mol
DOCKED: USER    (4) Unbound System's Energy  [=(2)] =  -12.37 kcal/mol
DOCKED: USER    
DOCKED: USER    
DOCKED: USER    NEWDPF move IHP_ideal_opt.pdbqt
DOCKED: USER    NEWDPF about 0.035000 0.082000 -0.065000
DOCKED: USER    NEWDPF tran0 19.705581 -7.808727 7.426852
DOCKED: USER    NEWDPF quaternion0 -0.669107 -0.727631 -0.150890 -0.009077
DOCKED: USER    NEWDPF axisangle0 -0.669134 -0.727661 -0.150896 -178.959878
DOCKED: USER    NEWDPF quat0 -0.669134 -0.727661 -0.150896 -178.959878
DOCKED: USER    NEWDPF dihe0 161.45 111.86 -163.99 -62.81 67.85 -106.86 -47.02 135.70 -31.64 87.34 19.08 -180.00 -26.00 176.80 -72.10 176.39 -15.44 159.35 -16.37 -27.40 -11.87 -24.39 -14.06 -10.75 
DOCKED: USER  keepresnum = 1 
DOCKED: USER  
DOCKED: REMARK  24 active torsions:
DOCKED: REMARK  status: ('A' for Active; 'I' for Inactive)
DOCKED: REMARK    1  A    between atoms: C_1  and  O_7 
DOCKED: REMARK    2  A    between atoms: C_2  and  O_12 
DOCKED: REMARK    3  A    between atoms: C_3  and  O_17 
DOCKED: REMARK    4  A    between atoms: C_4  and  O_22 
DOCKED: REMARK    5  A    between atoms: C_5  and  O_27 
DOCKED: REMARK    6  A    between atoms: C_6  and  O_32 
DOCKED: REMARK    7  A    between atoms: O_7  and  P_8 
DOCKED: REMARK    8  A    between atoms: P_8  and  O_10 
DOCKED: REMARK    9  A    between atoms: P_8  and  O_11 
DOCKED: REMARK   10  A    between atoms: O_12  and  P_13 
DOCKED: REMARK   11  A    between atoms: P_13  and  O_15 
DOCKED: REMARK   12  A    between atoms: P_13  and  O_16 
DOCKED: REMARK   13  A    between atoms: O_17  and  P_18 
DOCKED: REMARK   14  A    between atoms: P_18  and  O_20 
DOCKED: REMARK   15  A    between atoms: P_18  and  O_21 
DOCKED: REMARK   16  A    between atoms: O_22  and  P_23 
DOCKED: REMARK   17  A    between atoms: P_23  and  O_25 
DOCKED: REMARK   18  A    between atoms: P_23  and  O_26 
DOCKED: REMARK   19  A    between atoms: O_27  and  P_28 
DOCKED: REMARK   20  A    between atoms: P_28  and  O_30 
DOCKED: REMARK   21  A    between atoms: P_28  and  O_31 
DOCKED: REMARK   22  A    between atoms: O_32  and  P_33 
DOCKED: REMARK   23  A    between atoms: P_33  and  O_35 
DOCKED: REMARK   24  A    between atoms: P_33  and  O_36 
DOCKED: USER                              x       y       z     vdW  Elec       q    Type
DOCKED: USER                           _______ _______ _______ _____ _____    ______ ____
DOCKED: ROOT
DOCKED: ATOM      1  C   UNL d   1      18.857  -6.461   6.757 -0.13 +0.03    +0.194 C 
DOCKED: ATOM      2  C   UNL d   1      18.133  -7.806   6.674 -0.17 +0.02    +0.194 C 
DOCKED: ATOM      3  C   UNL d   1      19.078  -8.934   6.256 -0.23 +0.05    +0.194 C 
DOCKED: ATOM      4  C   UNL d   1      20.340  -9.010   7.113 -0.13 +0.07    +0.194 C 
DOCKED: ATOM      5  C   UNL d   1      21.032  -7.669   7.318 -0.11 +0.07    +0.194 C 
DOCKED: ATOM      6  C   UNL d   1      20.078  -6.527   7.675 -0.07 +0.03    +0.194 C 
DOCKED: ENDROOT
DOCKED: BRANCH   1   7
DOCKED: ATOM      7  O   UNL d   1      17.955  -5.503   7.316 -0.12 +0.01    -0.278 OA
DOCKED: BRANCH   7   8
DOCKED: ATOM      8  P   UNL d   1      17.925  -4.033   6.689 -0.11 -0.01    +0.473 P 
DOCKED: ATOM      9  O   UNL d   1      18.360  -3.944   5.269 -0.13 -0.01    -0.228 OA
DOCKED: BRANCH   8  10
DOCKED: ATOM     10  O   UNL d   1      16.424  -3.546   6.918 -0.26 +0.07    -0.303 OA
DOCKED: ATOM     11  H   UNL d   1      15.933  -4.223   7.420 -0.49 -0.12    +0.222 HD
DOCKED: ENDBRANCH   8  10
DOCKED: BRANCH   8  12
DOCKED: ATOM     12  O   UNL d   1      18.729  -3.129   7.719 -0.02 -0.00    -0.303 OA
DOCKED: ATOM     13  H   UNL d   1      19.685  -3.357   7.767 +0.04 +0.01    +0.222 HD
DOCKED: ENDBRANCH   8  12
DOCKED: ENDBRANCH   7   8
DOCKED: ENDBRANCH   1   7
DOCKED: BRANCH   2  14
DOCKED: ATOM     14  O   UNL d   1      17.585  -8.122   7.961 -0.08 +0.01    -0.278 OA
DOCKED: BRANCH  14  15
DOCKED: ATOM     15  P   UNL d   1      16.006  -7.925   8.135 -0.15 -0.13    +0.473 P 
DOCKED: ATOM     16  O   UNL d   1      15.556  -7.096   9.297 -0.14 +0.06    -0.228 OA
DOCKED: BRANCH  15  17
DOCKED: ATOM     17  O   UNL d   1      15.533  -7.332   6.734 -0.30 +0.13    -0.303 OA
DOCKED: ATOM     18  H   UNL d   1      15.138  -8.027   6.173 -0.18 -0.12    +0.222 HD
DOCKED: ENDBRANCH  15  17
DOCKED: BRANCH  15  19
DOCKED: ATOM     19  O   UNL d   1      15.413  -9.399   8.074 -0.12 +0.10    -0.303 OA
DOCKED: ATOM     20  H   UNL d   1      14.753  -9.494   7.362 -0.32 -0.13    +0.222 HD
DOCKED: ENDBRANCH  15  19
DOCKED: ENDBRANCH  14  15
DOCKED: ENDBRANCH   2  14
DOCKED: BRANCH   6  21
DOCKED: ATOM     21  O   UNL d   1      20.803  -5.312   7.495 -0.03 -0.05    -0.278 OA
DOCKED: BRANCH  21  22
DOCKED: ATOM     22  P   UNL d   1      21.135  -4.394   8.757 +0.01 +0.04    +0.473 P 
DOCKED: ATOM     23  O   UNL d   1      20.070  -4.193   9.782 -0.00 -0.01    -0.228 OA
DOCKED: BRANCH  22  24
DOCKED: ATOM     24  O   UNL d   1      22.470  -5.064   9.305 -0.00 -0.04    -0.303 OA
DOCKED: ATOM     25  H   UNL d   1      22.709  -5.813   8.701 +0.02 +0.05    +0.222 HD
DOCKED: ENDBRANCH  22  24
DOCKED: BRANCH  22  26
DOCKED: ATOM     26  O   UNL d   1      21.695  -3.066   8.055 -0.00 -0.03    -0.303 OA
DOCKED: ATOM     27  H   UNL d   1      20.941  -2.532   7.730 +0.01 +0.01    +0.222 HD
DOCKED: ENDBRANCH  22  26
DOCKED: ENDBRANCH  21  22
DOCKED: ENDBRANCH   6  21
DOCKED: BRANCH   3  28
DOCKED: ATOM     28  O   UNL d   1      18.400 -10.164   6.474 -0.12 -0.01    -0.278 OA
DOCKED: BRANCH  28  29
DOCKED: ATOM     29  P   UNL d   1      17.441 -10.764   5.352 -0.24 -0.12    +0.473 P 
DOCKED: ATOM     30  O   UNL d   1      17.333 -12.245   5.327 -0.16 +0.11    -0.228 OA
DOCKED: BRANCH  29  31
DOCKED: ATOM     31  O   UNL d   1      16.102  -9.943   5.661 -0.23 +0.12    -0.303 OA
DOCKED: ATOM     32  H   UNL d   1      16.293  -9.288   6.371 +0.08 -0.06    +0.222 HD
DOCKED: ENDBRANCH  29  31
DOCKED: BRANCH  29  33
DOCKED: ATOM     33  O   UNL d   1      17.989 -10.060   4.033 -0.52 +0.01    -0.303 OA
DOCKED: ATOM     34  H   UNL d   1      17.325 -10.171   3.310 -0.41 -0.04    +0.222 HD
DOCKED: ENDBRANCH  29  33
DOCKED: ENDBRANCH  28  29
DOCKED: ENDBRANCH   3  28
DOCKED: BRANCH   5  35
DOCKED: ATOM     35  O   UNL d   1      21.906  -7.850   8.430 -0.04 -0.10    -0.278 OA
DOCKED: BRANCH  35  36
DOCKED: ATOM     36  P   UNL d   1      23.484  -7.716   8.244 -0.05 +0.29    +0.473 P 
DOCKED: ATOM     37  O   UNL d   1      23.929  -6.792   7.155 -0.08 -0.18    -0.228 OA
DOCKED: BRANCH  36  38
DOCKED: ATOM     38  O   UNL d   1      23.949  -7.280   9.704 -0.01 -0.09    -0.303 OA
DOCKED: ATOM     39  H   UNL d   1      24.120  -6.313   9.710 +0.01 +0.05    +0.222 HD
DOCKED: ENDBRANCH  36  38
DOCKED: BRANCH  36  40
DOCKED: ATOM     40  O   UNL d   1      23.944  -9.235   8.135 -0.07 -0.30    -0.303 OA
DOCKED: ATOM     41  H   UNL d   1      23.365  -9.748   7.528 +0.01 +0.28    +0.222 HD
DOCKED: ENDBRANCH  36  40
DOCKED: ENDBRANCH  35  36
DOCKED: ENDBRANCH   5  35
DOCKED: BRANCH   4  42
DOCKED: ATOM     42  O   UNL d   1      21.261  -9.858   6.419 -0.13 -0.19    -0.278 OA
DOCKED: BRANCH  42  43
DOCKED: ATOM     43  P   UNL d   1      21.809 -11.164   7.153 -0.07 +0.27    +0.473 P 
DOCKED: ATOM     44  O   UNL d   1      23.126 -11.700   6.710 -0.64 -0.25    -0.228 OA
DOCKED: BRANCH  43  45
DOCKED: ATOM     45  O   UNL d   1      21.758 -10.750   8.688 -0.02 -0.10    -0.303 OA
DOCKED: ATOM     46  H   UNL d   1      22.241  -9.915   8.850 +0.02 +0.09    +0.222 HD
DOCKED: ENDBRANCH  43  45
DOCKED: BRANCH  43  47
DOCKED: ATOM     47  O   UNL d   1      20.577 -12.185   7.050 -0.02 -0.07    -0.303 OA
DOCKED: ATOM     48  H   UNL d   1      19.831 -11.745   6.593 +0.05 +0.03    +0.222 HD
DOCKED: ENDBRANCH  43  47
DOCKED: ENDBRANCH  42  43
DOCKED: ENDBRANCH   4  42
DOCKED: TORSDOF 24
DOCKED: TER
DOCKED: ENDMDL
________________________________________________________________________________


	BEGINNING GENETIC ALGORITHM DOCKING 14 of 100
Run: 14 Seed: 654773908 983217516 [ Run 14 of 100 GA/GALS ]
Beginning LAMARCKIAN GENETIC ALGORITHM (LGA), with a maximum of 25000000 energy evaluations.

Final-Value: -18.522


	FINAL GENETIC ALGORITHM DOCKED STATE
	_______________________________________________


Detailed state:  trans -1.115 -15.614 4.157 quatxyzw -0.284673 0.594220 0.125815 -0.741643 center 0.035 0.082 -0.065 ntor 24 46.1956 13.2963 124.8530 107.8090 72.6142 -44.7565 -136.2556 -22.9987 97.1395 27.2099 61.1185 -43.2839 173.9823 82.8422 54.2461 26.6934 124.9279 110.7123 32.6974 -13.7147 -179.4690 -33.2958 -5.5525 150.5485
State:	 -1.115 -15.614   4.157  -0.424  0.886  0.188 -84.257     46.20   13.30  124.85  107.81   72.61  -44.76 -136.26  -23.00   97.14   27.21   61.12  -43.28  173.98   82.84   54.25   26.69  124.93  110.71   32.70  -13.71 -179.47  -33.30   -5.55  150.55

DOCKED: MODEL       14
DOCKED: USER    Run = 14
DOCKED: USER    DPF = D:/Protein_go_brrr/autodock/final/mut_D99N/IHP/dock.dpf
DOCKED: USER  
DOCKED: USER    Estimated Free Energy of Binding    =   +2.42 kcal/mol  [=(1)+(2)+(3)-(4)]
DOCKED: USER    
DOCKED: USER    (1) Final Intermolecular Energy     =   -4.74 kcal/mol
DOCKED: USER        vdW + Hbond + desolv Energy     =   -4.71 kcal/mol
DOCKED: USER        Electrostatic Energy            =   -0.03 kcal/mol
DOCKED: USER    (2) Final Total Internal Energy     =  -13.78 kcal/mol
DOCKED: USER    (3) Torsional Free Energy           =   +7.16 kcal/mol
DOCKED: USER    (4) Unbound System's Energy  [=(2)] =  -13.78 kcal/mol
DOCKED: USER    
DOCKED: USER    
DOCKED: USER    NEWDPF move IHP_ideal_opt.pdbqt
DOCKED: USER    NEWDPF about 0.035000 0.082000 -0.065000
DOCKED: USER    NEWDPF tran0 -1.115201 -15.613650 4.157047
DOCKED: USER    NEWDPF quaternion0 -0.284673 0.594220 0.125815 -0.741643
DOCKED: USER    NEWDPF axisangle0 -0.424382 0.885845 0.187562 -84.256915
DOCKED: USER    NEWDPF quat0 -0.424382 0.885845 0.187562 -84.256915
DOCKED: USER    NEWDPF dihe0 46.20 13.30 124.85 107.81 72.61 -44.76 -136.26 -23.00 97.14 27.21 61.12 -43.28 173.98 82.84 54.25 26.69 124.93 110.71 32.70 -13.71 -179.47 -33.30 -5.55 150.55 
DOCKED: USER  keepresnum = 1 
DOCKED: USER  
DOCKED: REMARK  24 active torsions:
DOCKED: REMARK  status: ('A' for Active; 'I' for Inactive)
DOCKED: REMARK    1  A    between atoms: C_1  and  O_7 
DOCKED: REMARK    2  A    between atoms: C_2  and  O_12 
DOCKED: REMARK    3  A    between atoms: C_3  and  O_17 
DOCKED: REMARK    4  A    between atoms: C_4  and  O_22 
DOCKED: REMARK    5  A    between atoms: C_5  and  O_27 
DOCKED: REMARK    6  A    between atoms: C_6  and  O_32 
DOCKED: REMARK    7  A    between atoms: O_7  and  P_8 
DOCKED: REMARK    8  A    between atoms: P_8  and  O_10 
DOCKED: REMARK    9  A    between atoms: P_8  and  O_11 
DOCKED: REMARK   10  A    between atoms: O_12  and  P_13 
DOCKED: REMARK   11  A    between atoms: P_13  and  O_15 
DOCKED: REMARK   12  A    between atoms: P_13  and  O_16 
DOCKED: REMARK   13  A    between atoms: O_17  and  P_18 
DOCKED: REMARK   14  A    between atoms: P_18  and  O_20 
DOCKED: REMARK   15  A    between atoms: P_18  and  O_21 
DOCKED: REMARK   16  A    between atoms: O_22  and  P_23 
DOCKED: REMARK   17  A    between atoms: P_23  and  O_25 
DOCKED: REMARK   18  A    between atoms: P_23  and  O_26 
DOCKED: REMARK   19  A    between atoms: O_27  and  P_28 
DOCKED: REMARK   20  A    between atoms: P_28  and  O_30 
DOCKED: REMARK   21  A    between atoms: P_28  and  O_31 
DOCKED: REMARK   22  A    between atoms: O_32  and  P_33 
DOCKED: REMARK   23  A    between atoms: P_33  and  O_35 
DOCKED: REMARK   24  A    between atoms: P_33  and  O_36 
DOCKED: USER                              x       y       z     vdW  Elec       q    Type
DOCKED: USER                           _______ _______ _______ _____ _____    ______ ____
DOCKED: ROOT
DOCKED: ATOM      1  C   UNL d   1       0.320 -16.067   3.309 -0.04 -0.03    +0.194 C 
DOCKED: ATOM      2  C   UNL d   1       0.116 -16.737   4.669 -0.02 -0.02    +0.194 C 
DOCKED: ATOM      3  C   UNL d   1      -0.369 -15.741   5.725 -0.02 -0.02    +0.194 C 
DOCKED: ATOM      4  C   UNL d   1      -1.595 -14.946   5.283 -0.04 -0.02    +0.194 C 
DOCKED: ATOM      5  C   UNL d   1      -1.481 -14.356   3.883 -0.07 -0.02    +0.194 C 
DOCKED: ATOM      6  C   UNL d   1      -0.938 -15.334   2.840 -0.04 -0.02    +0.194 C 
DOCKED: ENDROOT
DOCKED: BRANCH   1   7
DOCKED: ATOM      7  O   UNL d   1       0.602 -17.087   2.348 -0.02 +0.03    -0.278 OA
DOCKED: BRANCH   7   8
DOCKED: ATOM      8  P   UNL d   1       2.126 -17.504   2.109 -0.06 -0.08    +0.473 P 
DOCKED: ATOM      9  O   UNL d   1       2.529 -17.630   0.681 -0.12 +0.03    -0.228 OA
DOCKED: BRANCH   8  10
DOCKED: ATOM     10  O   UNL d   1       2.958 -16.398   2.901 -0.01 +0.12    -0.303 OA
DOCKED: ATOM     11  H   UNL d   1       3.441 -15.835   2.267 -0.23 -0.14    +0.222 HD
DOCKED: ENDBRANCH   8  10
DOCKED: BRANCH   8  12
DOCKED: ATOM     12  O   UNL d   1       2.347 -18.794   3.009 -0.03 +0.04    -0.303 OA
DOCKED: ATOM     13  H   UNL d   1       1.804 -18.790   3.829 +0.02 -0.02    +0.222 HD
DOCKED: ENDBRANCH   8  12
DOCKED: ENDBRANCH   7   8
DOCKED: ENDBRANCH   1   7
DOCKED: BRANCH   2  14
DOCKED: ATOM     14  O   UNL d   1      -0.864 -17.775   4.537 -0.00 +0.02    -0.278 OA
DOCKED: BRANCH  14  15
DOCKED: ATOM     15  P   UNL d   1      -0.373 -19.267   4.850 +0.00 -0.03    +0.473 P 
DOCKED: ATOM     16  O   UNL d   1      -1.310 -20.132   5.633 -0.00 +0.01    -0.228 OA
DOCKED: BRANCH  15  17
DOCKED: ATOM     17  O   UNL d   1      -0.029 -19.870   3.416 -0.00 +0.02    -0.303 OA
DOCKED: ATOM     18  H   UNL d   1       0.255 -19.169   2.798 +0.01 -0.01    +0.222 HD
DOCKED: ENDBRANCH  15  17
DOCKED: BRANCH  15  19
DOCKED: ATOM     19  O   UNL d   1       1.078 -19.084   5.476 -0.00 +0.02    -0.303 OA
DOCKED: ATOM     20  H   UNL d   1       1.086 -18.402   6.173 +0.01 -0.02    +0.222 HD
DOCKED: ENDBRANCH  15  19
DOCKED: ENDBRANCH  14  15
DOCKED: ENDBRANCH   2  14
DOCKED: BRANCH   6  21
DOCKED: ATOM     21  O   UNL d   1      -0.570 -14.560   1.701 -0.06 +0.03    -0.278 OA
DOCKED: BRANCH  21  22
DOCKED: ATOM     22  P   UNL d   1       0.799 -13.741   1.708 -0.22 -0.10    +0.473 P 
DOCKED: ATOM     23  O   UNL d   1       2.051 -14.457   1.327 -0.33 +0.07    -0.228 OA
DOCKED: BRANCH  22  24
DOCKED: ATOM     24  O   UNL d   1       0.436 -12.494   0.788 -0.29 +0.05    -0.303 OA
DOCKED: ATOM     25  H   UNL d   1      -0.531 -12.536   0.578 +0.12 -0.00    +0.222 HD
DOCKED: ENDBRANCH  22  24
DOCKED: BRANCH  22  26
DOCKED: ATOM     26  O   UNL d   1       0.780 -13.089   3.172 -0.20 +0.08    -0.303 OA
DOCKED: ATOM     27  H   UNL d   1       1.686 -13.105   3.543 -0.43 -0.13    +0.222 HD
DOCKED: ENDBRANCH  22  26
DOCKED: ENDBRANCH  21  22
DOCKED: ENDBRANCH   6  21
DOCKED: BRANCH   3  28
DOCKED: ATOM     28  O   UNL d   1      -0.792 -16.489   6.857 -0.00 +0.02    -0.278 OA
DOCKED: BRANCH  28  29
DOCKED: ATOM     29  P   UNL d   1       0.281 -17.102   7.863 +0.02 -0.04    +0.473 P 
DOCKED: ATOM     30  O   UNL d   1       1.701 -16.818   7.535 -0.01 +0.02    -0.228 OA
DOCKED: BRANCH  29  31
DOCKED: ATOM     31  O   UNL d   1      -0.274 -16.524   9.249 +0.00 +0.03    -0.303 OA
DOCKED: ATOM     32  H   UNL d   1       0.081 -15.614   9.374 +0.04 -0.03    +0.222 HD
DOCKED: ENDBRANCH  29  31
DOCKED: BRANCH  29  33
DOCKED: ATOM     33  O   UNL d   1      -0.153 -18.633   7.922 +0.00 +0.02    -0.303 OA
DOCKED: ATOM     34  H   UNL d   1      -0.471 -18.911   7.028 +0.00 -0.01    +0.222 HD
DOCKED: ENDBRANCH  29  33
DOCKED: ENDBRANCH  28  29
DOCKED: ENDBRANCH   3  28
DOCKED: BRANCH   5  35
DOCKED: ATOM     35  O   UNL d   1      -2.812 -14.023   3.494 -0.04 +0.02    -0.278 OA
DOCKED: BRANCH  35  36
DOCKED: ATOM     36  P   UNL d   1      -3.166 -12.540   3.025 -0.07 -0.02    +0.473 P 
DOCKED: ATOM     37  O   UNL d   1      -4.517 -12.365   2.407 -0.11 +0.02    -0.228 OA
DOCKED: BRANCH  36  38
DOCKED: ATOM     38  O   UNL d   1      -2.949 -11.713   4.368 -0.10 +0.02    -0.303 OA
DOCKED: ATOM     39  H   UNL d   1      -2.290 -12.177   4.928 +0.09 -0.03    +0.222 HD
DOCKED: ENDBRANCH  36  38
DOCKED: BRANCH  36  40
DOCKED: ATOM     40  O   UNL d   1      -1.908 -12.157   2.131 -0.43 -0.01    -0.303 OA
DOCKED: ATOM     41  H   UNL d   1      -1.161 -12.780   2.267 +0.11 -0.01    +0.222 HD
DOCKED: ENDBRANCH  36  40
DOCKED: ENDBRANCH  35  36
DOCKED: ENDBRANCH   5  35
DOCKED: BRANCH   4  42
DOCKED: ATOM     42  O   UNL d   1      -1.729 -13.850   6.193 -0.08 +0.04    -0.278 OA
DOCKED: BRANCH  42  43
DOCKED: ATOM     43  P   UNL d   1      -0.414 -13.097   6.692 -0.24 -0.08    +0.473 P 
DOCKED: ATOM     44  O   UNL d   1      -0.565 -11.694   7.170 -0.84 +0.08    -0.228 OA
DOCKED: BRANCH  43  45
DOCKED: ATOM     45  O   UNL d   1       0.169 -14.097   7.784 -0.12 +0.05    -0.303 OA
DOCKED: ATOM     46  H   UNL d   1      -0.480 -14.792   8.015 +0.06 -0.03    +0.222 HD
DOCKED: ENDBRANCH  43  45
DOCKED: BRANCH  43  47
DOCKED: ATOM     47  O   UNL d   1       0.611 -13.307   5.478 -0.65 +0.03    -0.303 OA
DOCKED: ATOM     48  H   UNL d   1       1.069 -12.461   5.291 -0.24 +0.02    +0.222 HD
DOCKED: ENDBRANCH  43  47
DOCKED: ENDBRANCH  42  43
DOCKED: ENDBRANCH   4  42
DOCKED: TORSDOF 24
DOCKED: TER
DOCKED: ENDMDL
________________________________________________________________________________


	BEGINNING GENETIC ALGORITHM DOCKING 15 of 100
Run: 15 Seed: 71891364 1035397359 [ Run 15 of 100 GA/GALS ]
Beginning LAMARCKIAN GENETIC ALGORITHM (LGA), with a maximum of 25000000 energy evaluations.

Final-Value: -18.112


	FINAL GENETIC ALGORITHM DOCKED STATE
	_______________________________________________


Detailed state:  trans -15.863 11.797 9.503 quatxyzw 0.683128 0.502822 -0.529480 -0.012538 center 0.035 0.082 -0.065 ntor 24 177.1981 -45.4342 92.8065 74.6431 81.4446 138.4252 -55.3949 -142.2831 119.0047 -29.2150 1.6607 -142.7550 -119.5920 101.0586 -101.5024 125.3171 -120.9883 -4.5314 43.0665 -7.2874 -15.1380 -10.4618 -7.6613 165.0914
State:	-15.863  11.797   9.503   0.683  0.503 -0.530 -178.563    177.20  -45.43   92.81   74.64   81.44  138.43  -55.39 -142.28  119.00  -29.21    1.66 -142.75 -119.59  101.06 -101.50  125.32 -120.99   -4.53   43.07   -7.29  -15.14  -10.46   -7.66  165.09

DOCKED: MODEL       15
DOCKED: USER    Run = 15
DOCKED: USER    DPF = D:/Protein_go_brrr/autodock/final/mut_D99N/IHP/dock.dpf
DOCKED: USER  
DOCKED: USER    Estimated Free Energy of Binding    =   +3.76 kcal/mol  [=(1)+(2)+(3)-(4)]
DOCKED: USER    
DOCKED: USER    (1) Final Intermolecular Energy     =   -3.40 kcal/mol
DOCKED: USER        vdW + Hbond + desolv Energy     =   -3.21 kcal/mol
DOCKED: USER        Electrostatic Energy            =   -0.19 kcal/mol
DOCKED: USER    (2) Final Total Internal Energy     =  -14.71 kcal/mol
DOCKED: USER    (3) Torsional Free Energy           =   +7.16 kcal/mol
DOCKED: USER    (4) Unbound System's Energy  [=(2)] =  -14.71 kcal/mol
DOCKED: USER    
DOCKED: USER    
DOCKED: USER    NEWDPF move IHP_ideal_opt.pdbqt
DOCKED: USER    NEWDPF about 0.035000 0.082000 -0.065000
DOCKED: USER    NEWDPF tran0 -15.862723 11.796878 9.502875
DOCKED: USER    NEWDPF quaternion0 0.683128 0.502822 -0.529480 -0.012538
DOCKED: USER    NEWDPF axisangle0 0.683181 0.502862 -0.529522 -178.563259
DOCKED: USER    NEWDPF quat0 0.683181 0.502862 -0.529522 -178.563259
DOCKED: USER    NEWDPF dihe0 177.20 -45.43 92.81 74.64 81.44 138.43 -55.39 -142.28 119.00 -29.21 1.66 -142.75 -119.59 101.06 -101.50 125.32 -120.99 -4.53 43.07 -7.29 -15.14 -10.46 -7.66 165.09 
DOCKED: USER  keepresnum = 1 
DOCKED: USER  
DOCKED: REMARK  24 active torsions:
DOCKED: REMARK  status: ('A' for Active; 'I' for Inactive)
DOCKED: REMARK    1  A    between atoms: C_1  and  O_7 
DOCKED: REMARK    2  A    between atoms: C_2  and  O_12 
DOCKED: REMARK    3  A    between atoms: C_3  and  O_17 
DOCKED: REMARK    4  A    between atoms: C_4  and  O_22 
DOCKED: REMARK    5  A    between atoms: C_5  and  O_27 
DOCKED: REMARK    6  A    between atoms: C_6  and  O_32 
DOCKED: REMARK    7  A    between atoms: O_7  and  P_8 
DOCKED: REMARK    8  A    between atoms: P_8  and  O_10 
DOCKED: REMARK    9  A    between atoms: P_8  and  O_11 
DOCKED: REMARK   10  A    between atoms: O_12  and  P_13 
DOCKED: REMARK   11  A    between atoms: P_13  and  O_15 
DOCKED: REMARK   12  A    between atoms: P_13  and  O_16 
DOCKED: REMARK   13  A    between atoms: O_17  and  P_18 
DOCKED: REMARK   14  A    between atoms: P_18  and  O_20 
DOCKED: REMARK   15  A    between atoms: P_18  and  O_21 
DOCKED: REMARK   16  A    between atoms: O_22  and  P_23 
DOCKED: REMARK   17  A    between atoms: P_23  and  O_25 
DOCKED: REMARK   18  A    between atoms: P_23  and  O_26 
DOCKED: REMARK   19  A    between atoms: O_27  and  P_28 
DOCKED: REMARK   20  A    between atoms: P_28  and  O_30 
DOCKED: REMARK   21  A    between atoms: P_28  and  O_31 
DOCKED: REMARK   22  A    between atoms: O_32  and  P_33 
DOCKED: REMARK   23  A    between atoms: P_33  and  O_35 
DOCKED: REMARK   24  A    between atoms: P_33  and  O_36 
DOCKED: USER                              x       y       z     vdW  Elec       q    Type
DOCKED: USER                           _______ _______ _______ _____ _____    ______ ____
DOCKED: ROOT
DOCKED: ATOM      1  C   UNL d   1     -17.130  12.645   8.691 -0.04 -0.08    +0.194 C 
DOCKED: ATOM      2  C   UNL d   1     -17.348  12.404  10.186 -0.03 -0.06    +0.194 C 
DOCKED: ATOM      3  C   UNL d   1     -16.948  10.985  10.595 -0.05 -0.04    +0.194 C 
DOCKED: ATOM      4  C   UNL d   1     -15.538  10.605  10.149 -0.17 -0.06    +0.194 C 
DOCKED: ATOM      5  C   UNL d   1     -15.239  10.934   8.692 -0.14 -0.09    +0.194 C 
DOCKED: ATOM      6  C   UNL d   1     -15.695  12.331   8.266 -0.06 -0.15    +0.194 C 
DOCKED: ENDROOT
DOCKED: BRANCH   1   7
DOCKED: ATOM      7  O   UNL d   1     -17.360  14.031   8.424 -0.02 +0.11    -0.278 OA
DOCKED: BRANCH   7   8
DOCKED: ATOM      8  P   UNL d   1     -18.869  14.538   8.293 +0.01 -0.08    +0.473 P 
DOCKED: ATOM      9  O   UNL d   1     -19.602  14.037   7.099 +0.00 +0.02    -0.228 OA
DOCKED: BRANCH   8  10
DOCKED: ATOM     10  O   UNL d   1     -19.544  14.105   9.672 +0.00 +0.04    -0.303 OA
DOCKED: ATOM     11  H   UNL d   1     -18.850  13.940  10.338 +0.01 -0.04    +0.222 HD
DOCKED: ENDBRANCH   8  10
DOCKED: BRANCH   8  12
DOCKED: ATOM     12  O   UNL d   1     -18.788  16.118   8.445 +0.00 +0.05    -0.303 OA
DOCKED: ATOM     13  H   UNL d   1     -18.883  16.421   9.376 +0.00 -0.03    +0.222 HD
DOCKED: ENDBRANCH   8  12
DOCKED: ENDBRANCH   7   8
DOCKED: ENDBRANCH   1   7
DOCKED: BRANCH   2  14
DOCKED: ATOM     14  O   UNL d   1     -16.552  13.335  10.930 -0.06 +0.16    -0.278 OA
DOCKED: BRANCH  14  15
DOCKED: ATOM     15  P   UNL d   1     -17.328  14.257  11.985 -0.01 -0.14    +0.473 P 
DOCKED: ATOM     16  O   UNL d   1     -16.518  14.815  13.113 -0.02 +0.06    -0.228 OA
DOCKED: BRANCH  15  17
DOCKED: ATOM     17  O   UNL d   1     -18.000  15.390  11.089 -0.00 +0.07    -0.303 OA
DOCKED: ATOM     18  H   UNL d   1     -17.752  15.289  10.150 +0.01 -0.07    +0.222 HD
DOCKED: ENDBRANCH  15  17
DOCKED: BRANCH  15  19
DOCKED: ATOM     19  O   UNL d   1     -18.593  13.393  12.411 -0.00 +0.04    -0.303 OA
DOCKED: ATOM     20  H   UNL d   1     -18.498  12.460  12.146 +0.01 -0.03    +0.222 HD
DOCKED: ENDBRANCH  15  19
DOCKED: ENDBRANCH  14  15
DOCKED: ENDBRANCH   2  14
DOCKED: BRANCH   6  21
DOCKED: ATOM     21  O   UNL d   1     -15.665  12.358   6.841 -0.05 +0.13    -0.278 OA
DOCKED: BRANCH  21  22
DOCKED: ATOM     22  P   UNL d   1     -14.687  13.368   6.088 -0.06 -0.28    +0.473 P 
DOCKED: ATOM     23  O   UNL d   1     -15.013  14.823   6.124 -0.06 +0.13    -0.228 OA
DOCKED: BRANCH  22  24
DOCKED: ATOM     24  O   UNL d   1     -13.276  12.985   6.717 -0.20 +0.33    -0.303 OA
DOCKED: ATOM     25  H   UNL d   1     -13.369  12.109   7.171 +0.07 -0.20    +0.222 HD
DOCKED: ENDBRANCH  22  24
DOCKED: BRANCH  22  26
DOCKED: ATOM     26  O   UNL d   1     -14.592  12.705   4.632 -0.04 +0.09    -0.303 OA
DOCKED: ATOM     27  H   UNL d   1     -14.609  11.730   4.720 +0.08 -0.05    +0.222 HD
DOCKED: ENDBRANCH  22  26
DOCKED: ENDBRANCH  21  22
DOCKED: ENDBRANCH   6  21
DOCKED: BRANCH   3  28
DOCKED: ATOM     28  O   UNL d   1     -16.918  10.942  12.016 -0.03 +0.03    -0.278 OA
DOCKED: BRANCH  28  29
DOCKED: ATOM     29  P   UNL d   1     -18.140  10.321  12.828 +0.00 -0.01    +0.473 P 
DOCKED: ATOM     30  O   UNL d   1     -17.955   8.922  13.293 -0.02 -0.02    -0.228 OA
DOCKED: BRANCH  29  31
DOCKED: ATOM     31  O   UNL d   1     -18.326  11.443  13.954 -0.00 +0.01    -0.303 OA
DOCKED: ATOM     32  H   UNL d   1     -17.616  12.117  13.845 +0.02 -0.02    +0.222 HD
DOCKED: ENDBRANCH  29  31
DOCKED: BRANCH  29  33
DOCKED: ATOM     33  O   UNL d   1     -19.366  10.598  11.850 +0.00 +0.01    -0.303 OA
DOCKED: ATOM     34  H   UNL d   1     -19.687  11.522  11.992 +0.00 -0.01    +0.222 HD
DOCKED: ENDBRANCH  29  33
DOCKED: ENDBRANCH  28  29
DOCKED: ENDBRANCH   3  28
DOCKED: BRANCH   5  35
DOCKED: ATOM     35  O   UNL d   1     -13.818  10.901   8.572 -0.24 +0.16    -0.278 OA
DOCKED: BRANCH  35  36
DOCKED: ATOM     36  P   UNL d   1     -13.123   9.931   7.514 -0.30 -0.12    +0.473 P 
DOCKED: ATOM     37  O   UNL d   1     -13.067   8.487   7.902 -0.42 +0.02    -0.228 OA
DOCKED: BRANCH  36  38
DOCKED: ATOM     38  O   UNL d   1     -13.969  10.223   6.197 -0.10 +0.07    -0.303 OA
DOCKED: ATOM     39  H   UNL d   1     -14.033  11.193   6.065 +0.09 -0.08    +0.222 HD
DOCKED: ENDBRANCH  36  38
DOCKED: BRANCH  36  40
DOCKED: ATOM     40  O   UNL d   1     -11.735  10.660   7.246 -0.84 +0.10    -0.303 OA
DOCKED: ATOM     41  H   UNL d   1     -11.852  11.489   6.732 -0.40 -0.17    +0.222 HD
DOCKED: ENDBRANCH  36  40
DOCKED: ENDBRANCH  35  36
DOCKED: ENDBRANCH   5  35
DOCKED: BRANCH   4  42
DOCKED: ATOM     42  O   UNL d   1     -15.427   9.185  10.291 -0.15 -0.01    -0.278 OA
DOCKED: BRANCH  42  43
DOCKED: ATOM     43  P   UNL d   1     -16.512   8.252   9.586 -0.04 +0.03    +0.473 P 
DOCKED: ATOM     44  O   UNL d   1     -16.946   8.623   8.210 -0.02 +0.00    -0.228 OA
DOCKED: BRANCH  43  45
DOCKED: ATOM     45  O   UNL d   1     -15.852   6.807   9.693 -0.03 -0.08    -0.303 OA
DOCKED: ATOM     46  H   UNL d   1     -15.085   6.719   9.093 +0.06 +0.06    +0.222 HD
DOCKED: ENDBRANCH  43  45
DOCKED: BRANCH  43  47
DOCKED: ATOM     47  O   UNL d   1     -17.681   8.158  10.678 -0.03 -0.02    -0.303 OA
DOCKED: ATOM     48  H   UNL d   1     -17.761   9.018  11.140 +0.03 +0.01    +0.222 HD
DOCKED: ENDBRANCH  43  47
DOCKED: ENDBRANCH  42  43
DOCKED: ENDBRANCH   4  42
DOCKED: TORSDOF 24
DOCKED: TER
DOCKED: ENDMDL
________________________________________________________________________________


	BEGINNING GENETIC ALGORITHM DOCKING 16 of 100
Run: 16 Seed: 526552911 1592463378 [ Run 16 of 100 GA/GALS ]
Beginning LAMARCKIAN GENETIC ALGORITHM (LGA), with a maximum of 25000000 energy evaluations.

Final-Value: -17.828


	FINAL GENETIC ALGORITHM DOCKED STATE
	_______________________________________________


Detailed state:  trans -3.664 -14.129 9.228 quatxyzw -0.575425 -0.071960 0.071063 -0.811577 center 0.035 0.082 -0.065 ntor 24 89.8290 -13.2660 -179.9104 -22.9810 114.5823 122.0755 -71.6914 -47.0805 58.1045 106.9616 13.3676 -179.9186 132.2951 173.7927 180.0000 -1.1470 -50.7523 -135.3498 -13.2231 23.3493 3.7373 19.7839 168.2836 -26.5892
State:	 -3.664 -14.129   9.228  -0.985 -0.123  0.122 -71.499     89.83  -13.27 -179.91  -22.98  114.58  122.08  -71.69  -47.08   58.10  106.96   13.37 -179.92  132.30  173.79  180.00   -1.15  -50.75 -135.35  -13.22   23.35    3.74   19.78  168.28  -26.59

DOCKED: MODEL       16
DOCKED: USER    Run = 16
DOCKED: USER    DPF = D:/Protein_go_brrr/autodock/final/mut_D99N/IHP/dock.dpf
DOCKED: USER  
DOCKED: USER    Estimated Free Energy of Binding    =   +3.88 kcal/mol  [=(1)+(2)+(3)-(4)]
DOCKED: USER    
DOCKED: USER    (1) Final Intermolecular Energy     =   -3.28 kcal/mol
DOCKED: USER        vdW + Hbond + desolv Energy     =   -3.21 kcal/mol
DOCKED: USER        Electrostatic Energy            =   -0.07 kcal/mol
DOCKED: USER    (2) Final Total Internal Energy     =  -14.55 kcal/mol
DOCKED: USER    (3) Torsional Free Energy           =   +7.16 kcal/mol
DOCKED: USER    (4) Unbound System's Energy  [=(2)] =  -14.55 kcal/mol
DOCKED: USER    
DOCKED: USER    
DOCKED: USER    NEWDPF move IHP_ideal_opt.pdbqt
DOCKED: USER    NEWDPF about 0.035000 0.082000 -0.065000
DOCKED: USER    NEWDPF tran0 -3.664004 -14.128720 9.228154
DOCKED: USER    NEWDPF quaternion0 -0.575425 -0.071960 0.071063 -0.811577
DOCKED: USER    NEWDPF axisangle0 -0.984904 -0.123167 0.121632 -71.499368
DOCKED: USER    NEWDPF quat0 -0.984904 -0.123167 0.121632 -71.499368
DOCKED: USER    NEWDPF dihe0 89.83 -13.27 -179.91 -22.98 114.58 122.08 -71.69 -47.08 58.10 106.96 13.37 -179.92 132.30 173.79 180.00 -1.15 -50.75 -135.35 -13.22 23.35 3.74 19.78 168.28 -26.59 
DOCKED: USER  keepresnum = 1 
DOCKED: USER  
DOCKED: REMARK  24 active torsions:
DOCKED: REMARK  status: ('A' for Active; 'I' for Inactive)
DOCKED: REMARK    1  A    between atoms: C_1  and  O_7 
DOCKED: REMARK    2  A    between atoms: C_2  and  O_12 
DOCKED: REMARK    3  A    between atoms: C_3  and  O_17 
DOCKED: REMARK    4  A    between atoms: C_4  and  O_22 
DOCKED: REMARK    5  A    between atoms: C_5  and  O_27 
DOCKED: REMARK    6  A    between atoms: C_6  and  O_32 
DOCKED: REMARK    7  A    between atoms: O_7  and  P_8 
DOCKED: REMARK    8  A    between atoms: P_8  and  O_10 
DOCKED: REMARK    9  A    between atoms: P_8  and  O_11 
DOCKED: REMARK   10  A    between atoms: O_12  and  P_13 
DOCKED: REMARK   11  A    between atoms: P_13  and  O_15 
DOCKED: REMARK   12  A    between atoms: P_13  and  O_16 
DOCKED: REMARK   13  A    between atoms: O_17  and  P_18 
DOCKED: REMARK   14  A    between atoms: P_18  and  O_20 
DOCKED: REMARK   15  A    between atoms: P_18  and  O_21 
DOCKED: REMARK   16  A    between atoms: O_22  and  P_23 
DOCKED: REMARK   17  A    between atoms: P_23  and  O_25 
DOCKED: REMARK   18  A    between atoms: P_23  and  O_26 
DOCKED: REMARK   19  A    between atoms: O_27  and  P_28 
DOCKED: REMARK   20  A    between atoms: P_28  and  O_30 
DOCKED: REMARK   21  A    between atoms: P_28  and  O_31 
DOCKED: REMARK   22  A    between atoms: O_32  and  P_33 
DOCKED: REMARK   23  A    between atoms: P_33  and  O_35 
DOCKED: REMARK   24  A    between atoms: P_33  and  O_36 
DOCKED: USER                              x       y       z     vdW  Elec       q    Type
DOCKED: USER                           _______ _______ _______ _____ _____    ______ ____
DOCKED: ROOT
DOCKED: ATOM      1  C   UNL d   1      -2.565 -13.441  10.369 -0.10 -0.07    +0.194 C 
DOCKED: ATOM      2  C   UNL d   1      -3.688 -14.292  10.964 -0.07 +0.01    +0.194 C 
DOCKED: ATOM      3  C   UNL d   1      -5.033 -14.003  10.296 -0.06 +0.10    +0.194 C 
DOCKED: ATOM      4  C   UNL d   1      -4.981 -14.098   8.773 -0.05 +0.09    +0.194 C 
DOCKED: ATOM      5  C   UNL d   1      -3.808 -13.357   8.144 -0.12 +0.02    +0.194 C 
DOCKED: ATOM      6  C   UNL d   1      -2.473 -13.598   8.851 -0.15 -0.05    +0.194 C 
DOCKED: ENDROOT
DOCKED: BRANCH   1   7
DOCKED: ATOM      7  O   UNL d   1      -1.325 -13.890  10.921 -0.07 +0.08    -0.278 OA
DOCKED: BRANCH   7   8
DOCKED: ATOM      8  P   UNL d   1      -0.270 -12.795  11.410 -0.11 -0.17    +0.473 P 
DOCKED: ATOM      9  O   UNL d   1       1.031 -13.339  11.886 -0.21 +0.04    -0.228 OA
DOCKED: BRANCH   8  10
DOCKED: ATOM     10  O   UNL d   1      -0.121 -11.815  10.160 -0.05 +0.20    -0.303 OA
DOCKED: ATOM     11  H   UNL d   1       0.321 -12.284   9.428 -0.24 -0.14    +0.222 HD
DOCKED: ENDBRANCH   8  10
DOCKED: BRANCH   8  12
DOCKED: ATOM     12  O   UNL d   1      -1.065 -11.891  12.448 -0.11 +0.15    -0.303 OA
DOCKED: ATOM     13  H   UNL d   1      -1.864 -11.469  12.058 -0.33 -0.27    +0.222 HD
DOCKED: ENDBRANCH   8  12
DOCKED: ENDBRANCH   7   8
DOCKED: ENDBRANCH   1   7
DOCKED: BRANCH   2  14
DOCKED: ATOM     14  O   UNL d   1      -3.373 -15.678  10.775 -0.00 +0.00    -0.278 OA
DOCKED: BRANCH  14  15
DOCKED: ATOM     15  P   UNL d   1      -4.034 -16.709  11.808 +0.02 +0.01    +0.473 P 
DOCKED: ATOM     16  O   UNL d   1      -3.115 -17.704  12.443 +0.00 +0.00    -0.228 OA
DOCKED: BRANCH  15  17
DOCKED: ATOM     17  O   UNL d   1      -4.765 -15.776  12.872 +0.01 -0.01    -0.303 OA
DOCKED: ATOM     18  H   UNL d   1      -5.653 -15.516  12.561 +0.01 +0.02    +0.222 HD
DOCKED: ENDBRANCH  15  17
DOCKED: BRANCH  15  19
DOCKED: ATOM     19  O   UNL d   1      -5.270 -17.323  11.018 +0.01 -0.01    -0.303 OA
DOCKED: ATOM     20  H   UNL d   1      -6.052 -16.742  11.065 +0.01 +0.01    +0.222 HD
DOCKED: ENDBRANCH  15  19
DOCKED: ENDBRANCH  14  15
DOCKED: ENDBRANCH   2  14
DOCKED: BRANCH   6  21
DOCKED: ATOM     21  O   UNL d   1      -1.571 -12.599   8.381 -0.24 +0.20    -0.278 OA
DOCKED: BRANCH  21  22
DOCKED: ATOM     22  P   UNL d   1      -0.532 -12.952   7.223 -0.27 -0.12    +0.473 P 
DOCKED: ATOM     23  O   UNL d   1       0.775 -12.233   7.205 -0.35 +0.01    -0.228 OA
DOCKED: BRANCH  22  24
DOCKED: ATOM     24  O   UNL d   1      -0.421 -14.534   7.356 -0.05 +0.05    -0.303 OA
DOCKED: ATOM     25  H   UNL d   1      -1.339 -14.905   7.401 +0.05 -0.03    +0.222 HD
DOCKED: ENDBRANCH  22  24
DOCKED: BRANCH  22  26
DOCKED: ATOM     26  O   UNL d   1      -1.440 -12.793   5.911 -0.21 +0.05    -0.303 OA
DOCKED: ATOM     27  H   UNL d   1      -2.255 -13.323   6.019 +0.08 -0.03    +0.222 HD
DOCKED: ENDBRANCH  22  26
DOCKED: ENDBRANCH  21  22
DOCKED: ENDBRANCH   6  21
DOCKED: BRANCH   3  28
DOCKED: ATOM     28  O   UNL d   1      -5.943 -15.016  10.706 -0.02 -0.07    -0.278 OA
DOCKED: BRANCH  28  29
DOCKED: ATOM     29  P   UNL d   1      -7.381 -14.626  11.269 -0.00 +0.11    +0.473 P 
DOCKED: ATOM     30  O   UNL d   1      -7.477 -13.289  11.910 -0.03 -0.09    -0.228 OA
DOCKED: BRANCH  29  31
DOCKED: ATOM     31  O   UNL d   1      -8.269 -14.870   9.961 -0.00 -0.06    -0.303 OA
DOCKED: ATOM     32  H   UNL d   1      -7.677 -14.856   9.173 +0.01 +0.05    +0.222 HD
DOCKED: ENDBRANCH  29  31
DOCKED: BRANCH  29  33
DOCKED: ATOM     33  O   UNL d   1      -7.737 -15.886  12.176 +0.00 -0.03    -0.303 OA
DOCKED: ATOM     34  H   UNL d   1      -6.925 -16.437  12.293 +0.00 +0.01    +0.222 HD
DOCKED: ENDBRANCH  29  33
DOCKED: ENDBRANCH  28  29
DOCKED: ENDBRANCH   3  28
DOCKED: BRANCH   5  35
DOCKED: ATOM     35  O   UNL d   1      -3.684 -13.878   6.823 -0.06 +0.00    -0.278 OA
DOCKED: BRANCH  35  36
DOCKED: ATOM     36  P   UNL d   1      -3.376 -15.426   6.594 +0.02 -0.01    +0.473 P 
DOCKED: ATOM     37  O   UNL d   1      -3.088 -16.216   7.832 +0.00 +0.00    -0.228 OA
DOCKED: BRANCH  36  38
DOCKED: ATOM     38  O   UNL d   1      -4.671 -15.903   5.800 +0.00 -0.00    -0.303 OA
DOCKED: ATOM     39  H   UNL d   1      -5.353 -15.198   5.845 +0.02 +0.01    +0.222 HD
DOCKED: ENDBRANCH  36  38
DOCKED: BRANCH  36  40
DOCKED: ATOM     40  O   UNL d   1      -2.239 -15.386   5.483 -0.00 +0.02    -0.303 OA
DOCKED: ATOM     41  H   UNL d   1      -1.415 -14.968   5.819 +0.05 -0.02    +0.222 HD
DOCKED: ENDBRANCH  36  40
DOCKED: ENDBRANCH  35  36
DOCKED: ENDBRANCH   5  35
DOCKED: BRANCH   4  42
DOCKED: ATOM     42  O   UNL d   1      -6.178 -13.488   8.278 -0.56 -0.22    -0.278 OA
DOCKED: BRANCH  42  43
DOCKED: ATOM     43  P   UNL d   1      -6.963 -14.190   7.080 -0.02 +0.11    +0.473 P 
DOCKED: ATOM     44  O   UNL d   1      -6.582 -13.808   5.692 -0.02 -0.03    -0.228 OA
DOCKED: BRANCH  43  45
DOCKED: ATOM     45  O   UNL d   1      -6.780 -15.738   7.403 +0.00 -0.03    -0.303 OA
DOCKED: ATOM     46  H   UNL d   1      -5.835 -15.990   7.423 +0.01 +0.02    +0.222 HD
DOCKED: ENDBRANCH  43  45
DOCKED: BRANCH  43  47
DOCKED: ATOM     47  O   UNL d   1      -8.502 -13.958   7.464 -0.01 -0.06    -0.303 OA
DOCKED: ATOM     48  H   UNL d   1      -8.553 -13.474   8.315 +0.02 +0.07    +0.222 HD
DOCKED: ENDBRANCH  43  47
DOCKED: ENDBRANCH  42  43
DOCKED: ENDBRANCH   4  42
DOCKED: TORSDOF 24
DOCKED: TER
DOCKED: ENDMDL
________________________________________________________________________________


	BEGINNING GENETIC ALGORITHM DOCKING 17 of 100
Run: 17 Seed: 1573046324 833138743 [ Run 17 of 100 GA/GALS ]
Beginning LAMARCKIAN GENETIC ALGORITHM (LGA), with a maximum of 25000000 energy evaluations.

Final-Value: -16.296


	FINAL GENETIC ALGORITHM DOCKED STATE
	_______________________________________________


Detailed state:  trans -2.671 -9.060 14.564 quatxyzw -0.291128 0.440072 0.195479 -0.826662 center 0.035 0.082 -0.065 ntor 24 92.8690 35.8313 57.9311 98.9338 4.9607 179.9329 8.9891 -59.0708 19.2865 97.2164 -44.6111 -176.3529 -35.1209 151.3918 -59.1703 -39.3853 -71.7677 -90.6361 42.9318 -3.8163 -180.0000 141.4735 37.8775 -138.7106
State:	 -2.671  -9.060  14.564  -0.517  0.782  0.347 -68.485     92.87   35.83   57.93   98.93    4.96  179.93    8.99  -59.07   19.29   97.22  -44.61 -176.35  -35.12  151.39  -59.17  -39.39  -71.77  -90.64   42.93   -3.82 -180.00  141.47   37.88 -138.71

DOCKED: MODEL       17
DOCKED: USER    Run = 17
DOCKED: USER    DPF = D:/Protein_go_brrr/autodock/final/mut_D99N/IHP/dock.dpf
DOCKED: USER  
DOCKED: USER    Estimated Free Energy of Binding    =   +3.25 kcal/mol  [=(1)+(2)+(3)-(4)]
DOCKED: USER    
DOCKED: USER    (1) Final Intermolecular Energy     =   -3.91 kcal/mol
DOCKED: USER        vdW + Hbond + desolv Energy     =   -3.70 kcal/mol
DOCKED: USER        Electrostatic Energy            =   -0.22 kcal/mol
DOCKED: USER    (2) Final Total Internal Energy     =  -12.38 kcal/mol
DOCKED: USER    (3) Torsional Free Energy           =   +7.16 kcal/mol
DOCKED: USER    (4) Unbound System's Energy  [=(2)] =  -12.38 kcal/mol
DOCKED: USER    
DOCKED: USER    
DOCKED: USER    NEWDPF move IHP_ideal_opt.pdbqt
DOCKED: USER    NEWDPF about 0.035000 0.082000 -0.065000
DOCKED: USER    NEWDPF tran0 -2.670980 -9.060377 14.563825
DOCKED: USER    NEWDPF quaternion0 -0.291128 0.440072 0.195479 -0.826662
DOCKED: USER    NEWDPF axisangle0 -0.517377 0.782073 0.347395 -68.485352
DOCKED: USER    NEWDPF quat0 -0.517377 0.782073 0.347395 -68.485352
DOCKED: USER    NEWDPF dihe0 92.87 35.83 57.93 98.93 4.96 179.93 8.99 -59.07 19.29 97.22 -44.61 -176.35 -35.12 151.39 -59.17 -39.39 -71.77 -90.64 42.93 -3.82 -180.00 141.47 37.88 -138.71 
DOCKED: USER  keepresnum = 1 
DOCKED: USER  
DOCKED: REMARK  24 active torsions:
DOCKED: REMARK  status: ('A' for Active; 'I' for Inactive)
DOCKED: REMARK    1  A    between atoms: C_1  and  O_7 
DOCKED: REMARK    2  A    between atoms: C_2  and  O_12 
DOCKED: REMARK    3  A    between atoms: C_3  and  O_17 
DOCKED: REMARK    4  A    between atoms: C_4  and  O_22 
DOCKED: REMARK    5  A    between atoms: C_5  and  O_27 
DOCKED: REMARK    6  A    between atoms: C_6  and  O_32 
DOCKED: REMARK    7  A    between atoms: O_7  and  P_8 
DOCKED: REMARK    8  A    between atoms: P_8  and  O_10 
DOCKED: REMARK    9  A    between atoms: P_8  and  O_11 
DOCKED: REMARK   10  A    between atoms: O_12  and  P_13 
DOCKED: REMARK   11  A    between atoms: P_13  and  O_15 
DOCKED: REMARK   12  A    between atoms: P_13  and  O_16 
DOCKED: REMARK   13  A    between atoms: O_17  and  P_18 
DOCKED: REMARK   14  A    between atoms: P_18  and  O_20 
DOCKED: REMARK   15  A    between atoms: P_18  and  O_21 
DOCKED: REMARK   16  A    between atoms: O_22  and  P_23 
DOCKED: REMARK   17  A    between atoms: P_23  and  O_25 
DOCKED: REMARK   18  A    between atoms: P_23  and  O_26 
DOCKED: REMARK   19  A    between atoms: O_27  and  P_28 
DOCKED: REMARK   20  A    between atoms: P_28  and  O_30 
DOCKED: REMARK   21  A    between atoms: P_28  and  O_31 
DOCKED: REMARK   22  A    between atoms: O_32  and  P_33 
DOCKED: REMARK   23  A    between atoms: P_33  and  O_35 
DOCKED: REMARK   24  A    between atoms: P_33  and  O_36 
DOCKED: USER                              x       y       z     vdW  Elec       q    Type
DOCKED: USER                           _______ _______ _______ _____ _____    ______ ____
DOCKED: ROOT
DOCKED: ATOM      1  C   UNL d   1      -0.999  -9.129  14.135 -0.10 -0.02    +0.194 C 
DOCKED: ATOM      2  C   UNL d   1      -1.429 -10.060  15.270 -0.02 -0.01    +0.194 C 
DOCKED: ATOM      3  C   UNL d   1      -2.370  -9.359  16.252 -0.00 +0.00    +0.194 C 
DOCKED: ATOM      4  C   UNL d   1      -3.561  -8.691  15.571 -0.02 +0.01    +0.194 C 
DOCKED: ATOM      5  C   UNL d   1      -3.190  -7.843  14.361 -0.09 +0.00    +0.194 C 
DOCKED: ATOM      6  C   UNL d   1      -2.201  -8.521  13.410 -0.14 -0.04    +0.194 C 
DOCKED: ENDROOT
DOCKED: BRANCH   1   7
DOCKED: ATOM      7  O   UNL d   1      -0.270  -9.901  13.177 -0.15 +0.07    -0.278 OA
DOCKED: BRANCH   7   8
DOCKED: ATOM      8  P   UNL d   1       1.261 -10.241  13.483 -0.12 -0.09    +0.473 P 
DOCKED: ATOM      9  O   UNL d   1       1.678 -10.053  14.899 -0.04 +0.03    -0.228 OA
DOCKED: BRANCH   8  10
DOCKED: ATOM     10  O   UNL d   1       1.433 -11.742  12.971 -0.67 +0.03    -0.303 OA
DOCKED: ATOM     11  H   UNL d   1       0.882 -12.337  13.513 +0.04 -0.03    +0.222 HD
DOCKED: ENDBRANCH   8  10
DOCKED: BRANCH   8  12
DOCKED: ATOM     12  O   UNL d   1       2.089  -9.424  12.402 -0.35 +0.09    -0.303 OA
DOCKED: ATOM     13  H   UNL d   1       1.523  -9.019  11.706 +0.05 -0.06    +0.222 HD
DOCKED: ENDBRANCH   8  12
DOCKED: ENDBRANCH   7   8
DOCKED: ENDBRANCH   1   7
DOCKED: BRANCH   2  14
DOCKED: ATOM     14  O   UNL d   1      -2.110 -11.191  14.713 -0.02 +0.04    -0.278 OA
DOCKED: BRANCH  14  15
DOCKED: ATOM     15  P   UNL d   1      -1.583 -12.636  15.161 +0.02 -0.04    +0.473 P 
DOCKED: ATOM     16  O   UNL d   1      -1.806 -13.760  14.198 -0.00 +0.02    -0.228 OA
DOCKED: BRANCH  15  17
DOCKED: ATOM     17  O   UNL d   1      -0.042 -12.401  15.489 +0.00 +0.03    -0.303 OA
DOCKED: ATOM     18  H   UNL d   1       0.359 -11.770  14.861 +0.03 -0.03    +0.222 HD
DOCKED: ENDBRANCH  15  17
DOCKED: BRANCH  15  19
DOCKED: ATOM     19  O   UNL d   1      -2.191 -12.847  16.615 +0.00 +0.01    -0.303 OA
DOCKED: ATOM     20  H   UNL d   1      -3.102 -12.507  16.678 +0.01 -0.00    +0.222 HD
DOCKED: ENDBRANCH  15  19
DOCKED: ENDBRANCH  14  15
DOCKED: ENDBRANCH   2  14
DOCKED: BRANCH   6  21
DOCKED: ATOM     21  O   UNL d   1      -1.697  -7.505  12.546 -0.20 +0.03    -0.278 OA
DOCKED: BRANCH  21  22
DOCKED: ATOM     22  P   UNL d   1      -0.581  -6.496  13.076 -0.18 +0.02    +0.473 P 
DOCKED: ATOM     23  O   UNL d   1      -0.551  -6.181  14.534 -0.15 -0.07    -0.228 OA
DOCKED: BRANCH  22  24
DOCKED: ATOM     24  O   UNL d   1       0.751  -7.156  12.509 -0.21 +0.03    -0.303 OA
DOCKED: ATOM     25  H   UNL d   1       0.837  -8.062  12.902 +0.09 -0.03    +0.222 HD
DOCKED: ENDBRANCH  22  24
DOCKED: BRANCH  22  26
DOCKED: ATOM     26  O   UNL d   1      -0.777  -5.246  12.091 -0.31 +0.02    -0.303 OA
DOCKED: ATOM     27  H   UNL d   1      -1.559  -5.403  11.524 -0.06 -0.04    +0.222 HD
DOCKED: ENDBRANCH  22  26
DOCKED: ENDBRANCH  21  22
DOCKED: ENDBRANCH   6  21
DOCKED: BRANCH   3  28
DOCKED: ATOM     28  O   UNL d   1      -2.929 -10.357  17.097 +0.00 -0.00    -0.278 OA
DOCKED: BRANCH  28  29
DOCKED: ATOM     29  P   UNL d   1      -4.456 -10.780  16.940 +0.01 +0.01    +0.473 P 
DOCKED: ATOM     30  O   UNL d   1      -5.450  -9.724  17.264 +0.00 -0.01    -0.228 OA
DOCKED: BRANCH  29  31
DOCKED: ATOM     31  O   UNL d   1      -4.442 -11.328  15.437 -0.00 +0.00    -0.303 OA
DOCKED: ATOM     32  H   UNL d   1      -3.814 -12.085  15.384 +0.01 -0.01    +0.222 HD
DOCKED: ENDBRANCH  29  31
DOCKED: BRANCH  29  33
DOCKED: ATOM     33  O   UNL d   1      -4.522 -12.118  17.801 +0.00 -0.00    -0.303 OA
DOCKED: ATOM     34  H   UNL d   1      -3.627 -12.302  18.177 +0.00 +0.00    +0.222 HD
DOCKED: ENDBRANCH  29  33
DOCKED: ENDBRANCH  28  29
DOCKED: ENDBRANCH   3  28
DOCKED: BRANCH   5  35
DOCKED: ATOM     35  O   UNL d   1      -4.403  -7.650  13.637 -0.09 -0.01    -0.278 OA
DOCKED: BRANCH  35  36
DOCKED: ATOM     36  P   UNL d   1      -4.471  -6.583  12.453 -0.24 +0.03    +0.473 P 
DOCKED: ATOM     37  O   UNL d   1      -3.520  -5.434  12.564 -0.28 -0.03    -0.228 OA
DOCKED: BRANCH  36  38
DOCKED: ATOM     38  O   UNL d   1      -4.240  -7.501  11.172 -0.26 +0.01    -0.303 OA
DOCKED: ATOM     39  H   UNL d   1      -3.441  -8.054  11.313 +0.03 -0.09    +0.222 HD
DOCKED: ENDBRANCH  36  38
DOCKED: BRANCH  36  40
DOCKED: ATOM     40  O   UNL d   1      -6.022  -6.234  12.399 -0.20 -0.05    -0.303 OA
DOCKED: ATOM     41  H   UNL d   1      -6.356  -5.926  13.270 +0.09 +0.04    +0.222 HD
DOCKED: ENDBRANCH  36  40
DOCKED: ENDBRANCH  35  36
DOCKED: ENDBRANCH   5  35
DOCKED: BRANCH   4  42
DOCKED: ATOM     42  O   UNL d   1      -4.152  -7.813  16.535 -0.01 -0.03    -0.278 OA
DOCKED: BRANCH  42  43
DOCKED: ATOM     43  P   UNL d   1      -4.024  -6.237  16.323 -0.05 +0.10    +0.473 P 
DOCKED: ATOM     44  O   UNL d   1      -2.690  -5.703  15.929 -0.14 -0.09    -0.228 OA
DOCKED: BRANCH  43  45
DOCKED: ATOM     45  O   UNL d   1      -5.183  -5.931  15.276 -0.09 -0.05    -0.303 OA
DOCKED: ATOM     46  H   UNL d   1      -4.824  -5.576  14.439 +0.10 +0.04    +0.222 HD
DOCKED: ENDBRANCH  43  45
DOCKED: BRANCH  43  47
DOCKED: ATOM     47  O   UNL d   1      -4.638  -5.634  17.675 -0.05 -0.07    -0.303 OA
DOCKED: ATOM     48  H   UNL d   1      -4.883  -6.370  18.274 +0.03 +0.04    +0.222 HD
DOCKED: ENDBRANCH  43  47
DOCKED: ENDBRANCH  42  43
DOCKED: ENDBRANCH   4  42
DOCKED: TORSDOF 24
DOCKED: TER
DOCKED: ENDMDL
________________________________________________________________________________


	BEGINNING GENETIC ALGORITHM DOCKING 18 of 100
Run: 18 Seed: 76415063 1816549163 [ Run 18 of 100 GA/GALS ]
Beginning LAMARCKIAN GENETIC ALGORITHM (LGA), with a maximum of 25000000 energy evaluations.

Final-Value: -18.773


	FINAL GENETIC ALGORITHM DOCKED STATE
	_______________________________________________


Detailed state:  trans -9.358 12.343 14.992 quatxyzw 0.580215 0.233244 0.250294 0.739122 center 0.035 0.082 -0.065 ntor 24 102.2917 11.0522 178.3488 17.1075 149.7185 147.2729 -140.8956 -78.9647 105.4224 -128.2099 -130.9664 -179.0233 162.9234 -170.5466 49.3795 -139.8508 -152.2150 164.9362 52.5351 9.9477 -176.1727 -0.6808 2.8705 179.5899
State:	 -9.358  12.343  14.992   0.861  0.346  0.372 84.687    102.29   11.05  178.35   17.11  149.72  147.27 -140.90  -78.96  105.42 -128.21 -130.97 -179.02  162.92 -170.55   49.38 -139.85 -152.22  164.94   52.54    9.95 -176.17   -0.68    2.87  179.59

DOCKED: MODEL       18
DOCKED: USER    Run = 18
DOCKED: USER    DPF = D:/Protein_go_brrr/autodock/final/mut_D99N/IHP/dock.dpf
DOCKED: USER  
DOCKED: USER    Estimated Free Energy of Binding    =   +2.42 kcal/mol  [=(1)+(2)+(3)-(4)]
DOCKED: USER    
DOCKED: USER    (1) Final Intermolecular Energy     =   -4.73 kcal/mol
DOCKED: USER        vdW + Hbond + desolv Energy     =   -4.62 kcal/mol
DOCKED: USER        Electrostatic Energy            =   -0.11 kcal/mol
DOCKED: USER    (2) Final Total Internal Energy     =  -14.04 kcal/mol
DOCKED: USER    (3) Torsional Free Energy           =   +7.16 kcal/mol
DOCKED: USER    (4) Unbound System's Energy  [=(2)] =  -14.04 kcal/mol
DOCKED: USER    
DOCKED: USER    
DOCKED: USER    NEWDPF move IHP_ideal_opt.pdbqt
DOCKED: USER    NEWDPF about 0.035000 0.082000 -0.065000
DOCKED: USER    NEWDPF tran0 -9.357874 12.343068 14.992250
DOCKED: USER    NEWDPF quaternion0 0.580215 0.233244 0.250294 0.739122
DOCKED: USER    NEWDPF axisangle0 0.861400 0.346279 0.371592 84.686670
DOCKED: USER    NEWDPF quat0 0.861400 0.346279 0.371592 84.686670
DOCKED: USER    NEWDPF dihe0 102.29 11.05 178.35 17.11 149.72 147.27 -140.90 -78.96 105.42 -128.21 -130.97 -179.02 162.92 -170.55 49.38 -139.85 -152.22 164.94 52.54 9.95 -176.17 -0.68 2.87 179.59 
DOCKED: USER  keepresnum = 1 
DOCKED: USER  
DOCKED: REMARK  24 active torsions:
DOCKED: REMARK  status: ('A' for Active; 'I' for Inactive)
DOCKED: REMARK    1  A    between atoms: C_1  and  O_7 
DOCKED: REMARK    2  A    between atoms: C_2  and  O_12 
DOCKED: REMARK    3  A    between atoms: C_3  and  O_17 
DOCKED: REMARK    4  A    between atoms: C_4  and  O_22 
DOCKED: REMARK    5  A    between atoms: C_5  and  O_27 
DOCKED: REMARK    6  A    between atoms: C_6  and  O_32 
DOCKED: REMARK    7  A    between atoms: O_7  and  P_8 
DOCKED: REMARK    8  A    between atoms: P_8  and  O_10 
DOCKED: REMARK    9  A    between atoms: P_8  and  O_11 
DOCKED: REMARK   10  A    between atoms: O_12  and  P_13 
DOCKED: REMARK   11  A    between atoms: P_13  and  O_15 
DOCKED: REMARK   12  A    between atoms: P_13  and  O_16 
DOCKED: REMARK   13  A    between atoms: O_17  and  P_18 
DOCKED: REMARK   14  A    between atoms: P_18  and  O_20 
DOCKED: REMARK   15  A    between atoms: P_18  and  O_21 
DOCKED: REMARK   16  A    between atoms: O_22  and  P_23 
DOCKED: REMARK   17  A    between atoms: P_23  and  O_25 
DOCKED: REMARK   18  A    between atoms: P_23  and  O_26 
DOCKED: REMARK   19  A    between atoms: O_27  and  P_28 
DOCKED: REMARK   20  A    between atoms: P_28  and  O_30 
DOCKED: REMARK   21  A    between atoms: P_28  and  O_31 
DOCKED: REMARK   22  A    between atoms: O_32  and  P_33 
DOCKED: REMARK   23  A    between atoms: P_33  and  O_35 
DOCKED: REMARK   24  A    between atoms: P_33  and  O_36 
DOCKED: USER                              x       y       z     vdW  Elec       q    Type
DOCKED: USER                           _______ _______ _______ _____ _____    ______ ____
DOCKED: ROOT
DOCKED: ATOM      1  C   UNL d   1      -9.010  12.811  16.619 -0.14 -0.04    +0.194 C 
DOCKED: ATOM      2  C   UNL d   1     -10.461  12.413  16.341 -0.15 -0.03    +0.194 C 
DOCKED: ATOM      3  C   UNL d   1     -10.968  13.004  15.024 -0.14 -0.05    +0.194 C 
DOCKED: ATOM      4  C   UNL d   1     -10.052  12.707  13.839 -0.16 -0.05    +0.194 C 
DOCKED: ATOM      5  C   UNL d   1      -8.578  12.981  14.111 -0.21 -0.05    +0.194 C 
DOCKED: ATOM      6  C   UNL d   1      -8.086  12.444  15.457 -0.16 -0.07    +0.194 C 
DOCKED: ENDROOT
DOCKED: BRANCH   1   7
DOCKED: ATOM      7  O   UNL d   1      -8.561  12.086  17.766 -0.18 +0.07    -0.278 OA
DOCKED: BRANCH   7   8
DOCKED: ATOM      8  P   UNL d   1      -9.170  12.468  19.192 -0.07 -0.07    +0.473 P 
DOCKED: ATOM      9  O   UNL d   1      -8.225  12.345  20.335 -0.10 +0.05    -0.228 OA
DOCKED: BRANCH   8  10
DOCKED: ATOM     10  O   UNL d   1      -9.724  13.950  18.991 -0.01 +0.04    -0.303 OA
DOCKED: ATOM     11  H   UNL d   1      -9.006  14.526  18.667 +0.03 -0.03    +0.222 HD
DOCKED: ENDBRANCH   8  10
DOCKED: BRANCH   8  12
DOCKED: ATOM     12  O   UNL d   1     -10.511  11.624  19.308 -0.06 +0.01    -0.303 OA
DOCKED: ATOM     13  H   UNL d   1     -10.970  11.509  18.445 +0.05 -0.01    +0.222 HD
DOCKED: ENDBRANCH   8  12
DOCKED: ENDBRANCH   7   8
DOCKED: ENDBRANCH   1   7
DOCKED: BRANCH   2  14
DOCKED: ATOM     14  O   UNL d   1     -10.547  10.985  16.264 -0.21 +0.04    -0.278 OA
DOCKED: BRANCH  14  15
DOCKED: ATOM     15  P   UNL d   1     -11.849  10.311  16.908 -0.08 +0.01    +0.473 P 
DOCKED: ATOM     16  O   UNL d   1     -11.631   9.424  18.094 -0.07 -0.04    -0.228 OA
DOCKED: BRANCH  15  17
DOCKED: ATOM     17  O   UNL d   1     -12.807  11.543  17.227 -0.04 +0.01    -0.303 OA
DOCKED: ATOM     18  H   UNL d   1     -13.305  11.816  16.433 +0.05 -0.02    +0.222 HD
DOCKED: ENDBRANCH  15  17
DOCKED: BRANCH  15  19
DOCKED: ATOM     19  O   UNL d   1     -12.597   9.636  15.676 -0.23 +0.01    -0.303 OA
DOCKED: ATOM     20  H   UNL d   1     -12.601  10.219  14.894 -0.38 -0.09    +0.222 HD
DOCKED: ENDBRANCH  15  19
DOCKED: ENDBRANCH  14  15
DOCKED: ENDBRANCH   2  14
DOCKED: BRANCH   6  21
DOCKED: ATOM     21  O   UNL d   1      -6.827  13.062  15.712 -0.25 +0.08    -0.278 OA
DOCKED: BRANCH  21  22
DOCKED: ATOM     22  P   UNL d   1      -6.778  14.537  16.319 -0.04 -0.10    +0.473 P 
DOCKED: ATOM     23  O   UNL d   1      -6.995  14.702  17.785 -0.05 +0.05    -0.228 OA
DOCKED: BRANCH  22  24
DOCKED: ATOM     24  O   UNL d   1      -5.371  15.060  15.789 -0.08 +0.06    -0.303 OA
DOCKED: ATOM     25  H   UNL d   1      -5.497  15.401  14.867 +0.06 -0.04    +0.222 HD
DOCKED: ENDBRANCH  22  24
DOCKED: BRANCH  22  26
DOCKED: ATOM     26  O   UNL d   1      -7.803  15.316  15.364 -0.01 +0.05    -0.303 OA
DOCKED: ATOM     27  H   UNL d   1      -7.830  14.873  14.492 +0.07 -0.04    +0.222 HD
DOCKED: ENDBRANCH  22  26
DOCKED: ENDBRANCH  21  22
DOCKED: ENDBRANCH   6  21
DOCKED: BRANCH   3  28
DOCKED: ATOM     28  O   UNL d   1     -12.201  12.366  14.716 -0.14 +0.08    -0.278 OA
DOCKED: BRANCH  28  29
DOCKED: ATOM     29  P   UNL d   1     -13.570  13.177  14.805 -0.06 -0.10    +0.473 P 
DOCKED: ATOM     30  O   UNL d   1     -14.805  12.352  14.786 -0.05 +0.03    -0.228 OA
DOCKED: BRANCH  29  31
DOCKED: ATOM     31  O   UNL d   1     -13.295  14.044  16.121 -0.01 +0.04    -0.303 OA
DOCKED: ATOM     32  H   UNL d   1     -13.599  13.530  16.905 +0.02 -0.02    +0.222 HD
DOCKED: ENDBRANCH  29  31
DOCKED: BRANCH  29  33
DOCKED: ATOM     33  O   UNL d   1     -13.401  14.246  13.637 -0.10 +0.13    -0.303 OA
DOCKED: ATOM     34  H   UNL d   1     -12.441  14.334  13.418 +0.04 -0.10    +0.222 HD
DOCKED: ENDBRANCH  29  33
DOCKED: ENDBRANCH  28  29
DOCKED: ENDBRANCH   3  28
DOCKED: BRANCH   5  35
DOCKED: ATOM     35  O   UNL d   1      -7.861  12.285  13.093 -0.27 +0.07    -0.278 OA
DOCKED: BRANCH  35  36
DOCKED: ATOM     36  P   UNL d   1      -6.681  13.009  12.301 -0.23 -0.11    +0.473 P 
DOCKED: ATOM     37  O   UNL d   1      -6.985  13.372  10.882 -0.35 +0.05    -0.228 OA
DOCKED: BRANCH  36  38
DOCKED: ATOM     38  O   UNL d   1      -6.373  14.255  13.244 -0.08 +0.07    -0.303 OA
DOCKED: ATOM     39  H   UNL d   1      -6.491  13.986  14.180 +0.10 -0.05    +0.222 HD
DOCKED: ENDBRANCH  36  38
DOCKED: BRANCH  36  40
DOCKED: ATOM     40  O   UNL d   1      -5.454  12.029  12.548 -0.27 +0.08    -0.303 OA
DOCKED: ATOM     41  H   UNL d   1      -4.605  12.426  12.250 -0.36 -0.13    +0.222 HD
DOCKED: ENDBRANCH  36  40
DOCKED: ENDBRANCH  35  36
DOCKED: ENDBRANCH   5  35
DOCKED: BRANCH   4  42
DOCKED: ATOM     42  O   UNL d   1     -10.453  13.578  12.776 -0.12 +0.09    -0.278 OA
DOCKED: BRANCH  42  43
DOCKED: ATOM     43  P   UNL d   1     -10.197  15.145  12.926 -0.08 -0.17    +0.473 P 
DOCKED: ATOM     44  O   UNL d   1     -11.158  16.065  12.254 -0.12 +0.14    -0.228 OA
DOCKED: BRANCH  43  45
DOCKED: ATOM     45  O   UNL d   1     -10.108  15.336  14.503 -0.02 +0.07    -0.303 OA
DOCKED: ATOM     46  H   UNL d   1      -9.596  16.135  14.739 +0.02 -0.04    +0.222 HD
DOCKED: ENDBRANCH  43  45
DOCKED: BRANCH  43  47
DOCKED: ATOM     47  O   UNL d   1      -8.663  15.309  12.491 -0.06 +0.08    -0.303 OA
DOCKED: ATOM     48  H   UNL d   1      -8.299  14.431  12.256 +0.09 -0.06    +0.222 HD
DOCKED: ENDBRANCH  43  47
DOCKED: ENDBRANCH  42  43
DOCKED: ENDBRANCH   4  42
DOCKED: TORSDOF 24
DOCKED: TER
DOCKED: ENDMDL
________________________________________________________________________________


	BEGINNING GENETIC ALGORITHM DOCKING 19 of 100
Run: 19 Seed: 2085819014 1878525178 [ Run 19 of 100 GA/GALS ]
Beginning LAMARCKIAN GENETIC ALGORITHM (LGA), with a maximum of 25000000 energy evaluations.

Final-Value: -19.912


	FINAL GENETIC ALGORITHM DOCKED STATE
	_______________________________________________


Detailed state:  trans 1.405 9.796 -12.169 quatxyzw -0.346628 0.401140 -0.533239 -0.659236 center 0.035 0.082 -0.065 ntor 24 174.1985 -7.4933 179.6923 -17.4836 22.6532 133.9590 -89.8649 -22.9246 -14.1394 88.0587 2.9464 -128.4579 76.3895 171.8558 -179.0257 3.5389 -34.1714 -13.6465 -15.0476 21.9679 -13.2192 22.0384 -179.4467 -19.8191
State:	  1.405   9.796 -12.169  -0.461  0.533 -0.709 -97.517    174.20   -7.49  179.69  -17.48   22.65  133.96  -89.86  -22.92  -14.14   88.06    2.95 -128.46   76.39  171.86 -179.03    3.54  -34.17  -13.65  -15.05   21.97  -13.22   22.04 -179.45  -19.82

DOCKED: MODEL       19
DOCKED: USER    Run = 19
DOCKED: USER    DPF = D:/Protein_go_brrr/autodock/final/mut_D99N/IHP/dock.dpf
DOCKED: USER  
DOCKED: USER    Estimated Free Energy of Binding    =   +2.15 kcal/mol  [=(1)+(2)+(3)-(4)]
DOCKED: USER    
DOCKED: USER    (1) Final Intermolecular Energy     =   -5.00 kcal/mol
DOCKED: USER        vdW + Hbond + desolv Energy     =   -4.72 kcal/mol
DOCKED: USER        Electrostatic Energy            =   -0.28 kcal/mol
DOCKED: USER    (2) Final Total Internal Energy     =  -14.91 kcal/mol
DOCKED: USER    (3) Torsional Free Energy           =   +7.16 kcal/mol
DOCKED: USER    (4) Unbound System's Energy  [=(2)] =  -14.91 kcal/mol
DOCKED: USER    
DOCKED: USER    
DOCKED: USER    NEWDPF move IHP_ideal_opt.pdbqt
DOCKED: USER    NEWDPF about 0.035000 0.082000 -0.065000
DOCKED: USER    NEWDPF tran0 1.404662 9.795915 -12.168646
DOCKED: USER    NEWDPF quaternion0 -0.346628 0.401140 -0.533239 -0.659236
DOCKED: USER    NEWDPF axisangle0 -0.460980 0.533476 -0.709155 -97.516799
DOCKED: USER    NEWDPF quat0 -0.460980 0.533476 -0.709155 -97.516799
DOCKED: USER    NEWDPF dihe0 174.20 -7.49 179.69 -17.48 22.65 133.96 -89.86 -22.92 -14.14 88.06 2.95 -128.46 76.39 171.86 -179.03 3.54 -34.17 -13.65 -15.05 21.97 -13.22 22.04 -179.45 -19.82 
DOCKED: USER  keepresnum = 1 
DOCKED: USER  
DOCKED: REMARK  24 active torsions:
DOCKED: REMARK  status: ('A' for Active; 'I' for Inactive)
DOCKED: REMARK    1  A    between atoms: C_1  and  O_7 
DOCKED: REMARK    2  A    between atoms: C_2  and  O_12 
DOCKED: REMARK    3  A    between atoms: C_3  and  O_17 
DOCKED: REMARK    4  A    between atoms: C_4  and  O_22 
DOCKED: REMARK    5  A    between atoms: C_5  and  O_27 
DOCKED: REMARK    6  A    between atoms: C_6  and  O_32 
DOCKED: REMARK    7  A    between atoms: O_7  and  P_8 
DOCKED: REMARK    8  A    between atoms: P_8  and  O_10 
DOCKED: REMARK    9  A    between atoms: P_8  and  O_11 
DOCKED: REMARK   10  A    between atoms: O_12  and  P_13 
DOCKED: REMARK   11  A    between atoms: P_13  and  O_15 
DOCKED: REMARK   12  A    between atoms: P_13  and  O_16 
DOCKED: REMARK   13  A    between atoms: O_17  and  P_18 
DOCKED: REMARK   14  A    between atoms: P_18  and  O_20 
DOCKED: REMARK   15  A    between atoms: P_18  and  O_21 
DOCKED: REMARK   16  A    between atoms: O_22  and  P_23 
DOCKED: REMARK   17  A    between atoms: P_23  and  O_25 
DOCKED: REMARK   18  A    between atoms: P_23  and  O_26 
DOCKED: REMARK   19  A    between atoms: O_27  and  P_28 
DOCKED: REMARK   20  A    between atoms: P_28  and  O_30 
DOCKED: REMARK   21  A    between atoms: P_28  and  O_31 
DOCKED: REMARK   22  A    between atoms: O_32  and  P_33 
DOCKED: REMARK   23  A    between atoms: P_33  and  O_35 
DOCKED: REMARK   24  A    between atoms: P_33  and  O_36 
DOCKED: USER                              x       y       z     vdW  Elec       q    Type
DOCKED: USER                           _______ _______ _______ _____ _____    ______ ____
DOCKED: ROOT
DOCKED: ATOM      1  C   UNL d   1       1.875   8.420 -11.236 -0.12 -0.00    +0.194 C 
DOCKED: ATOM      2  C   UNL d   1       1.065   9.480 -10.488 -0.14 -0.04    +0.194 C 
DOCKED: ATOM      3  C   UNL d   1       1.536  10.896 -10.826 -0.09 -0.05    +0.194 C 
DOCKED: ATOM      4  C   UNL d   1       1.594  11.168 -12.327 -0.01 -0.01    +0.194 C 
DOCKED: ATOM      5  C   UNL d   1       2.294  10.077 -13.129 -0.01 -0.00    +0.194 C 
DOCKED: ATOM      6  C   UNL d   1       1.868   8.658 -12.747 -0.05 -0.00    +0.194 C 
DOCKED: ENDROOT
DOCKED: BRANCH   1   7
DOCKED: ATOM      7  O   UNL d   1       1.268   7.147 -11.003 -0.17 +0.03    -0.278 OA
DOCKED: BRANCH   7   8
DOCKED: ATOM      8  P   UNL d   1       2.216   5.897 -10.704 -0.20 +0.02    +0.473 P 
DOCKED: ATOM      9  O   UNL d   1       1.877   5.126  -9.477 -0.41 -0.03    -0.228 OA
DOCKED: BRANCH   8  10
DOCKED: ATOM     10  O   UNL d   1       2.134   5.023 -12.037 -0.32 -0.02    -0.303 OA
DOCKED: ATOM     11  H   UNL d   1       1.768   5.565 -12.761 -0.18 +0.03    +0.222 HD
DOCKED: ENDBRANCH   8  10
DOCKED: BRANCH   8  12
DOCKED: ATOM     12  O   UNL d   1       3.694   6.473 -10.775 -0.12 -0.06    -0.303 OA
DOCKED: ATOM     13  H   UNL d   1       3.878   6.962 -11.609 +0.06 +0.03    +0.222 HD
DOCKED: ENDBRANCH   8  12
DOCKED: ENDBRANCH   7   8
DOCKED: ENDBRANCH   1   7
DOCKED: BRANCH   2  14
DOCKED: ATOM     14  O   UNL d   1      -0.315   9.358 -10.854 -0.08 +0.05    -0.278 OA
DOCKED: BRANCH  14  15
DOCKED: ATOM     15  P   UNL d   1      -1.388   9.865  -9.779 -0.17 -0.11    +0.473 P 
DOCKED: ATOM     16  O   UNL d   1      -2.536   8.950  -9.492 -0.26 +0.02    -0.228 OA
DOCKED: BRANCH  15  17
DOCKED: ATOM     17  O   UNL d   1      -0.517  10.188  -8.484 -0.19 +0.27    -0.303 OA
DOCKED: ATOM     18  H   UNL d   1      -0.132  11.084  -8.534 -0.46 -0.35    +0.222 HD
DOCKED: ENDBRANCH  15  17
DOCKED: BRANCH  15  19
DOCKED: ATOM     19  O   UNL d   1      -1.782  11.326 -10.271 -0.11 +0.06    -0.303 OA
DOCKED: ATOM     20  H   UNL d   1      -1.093  11.979 -10.047 +0.07 -0.07    +0.222 HD
DOCKED: ENDBRANCH  15  19
DOCKED: ENDBRANCH  14  15
DOCKED: ENDBRANCH   2  14
DOCKED: BRANCH   6  21
DOCKED: ATOM     21  O   UNL d   1       2.830   7.772 -13.314 -0.04 -0.02    -0.278 OA
DOCKED: BRANCH  21  22
DOCKED: ATOM     22  P   UNL d   1       2.384   6.738 -14.444 -0.05 +0.06    +0.473 P 
DOCKED: ATOM     23  O   UNL d   1       3.099   5.431 -14.526 -0.46 -0.05    -0.228 OA
DOCKED: BRANCH  22  24
DOCKED: ATOM     24  O   UNL d   1       0.818   6.627 -14.184 -0.19 -0.00    -0.303 OA
DOCKED: ATOM     25  H   UNL d   1       0.672   6.557 -13.206 -0.47 -0.07    +0.222 HD
DOCKED: ENDBRANCH  22  24
DOCKED: BRANCH  22  26
DOCKED: ATOM     26  O   UNL d   1       2.437   7.651 -15.761 -0.01 -0.03    -0.303 OA
DOCKED: ATOM     27  H   UNL d   1       2.085   8.540 -15.550 +0.01 +0.01    +0.222 HD
DOCKED: ENDBRANCH  22  26
DOCKED: ENDBRANCH  21  22
DOCKED: ENDBRANCH   6  21
DOCKED: BRANCH   3  28
DOCKED: ATOM     28  O   UNL d   1       0.567  11.803 -10.316 -0.09 +0.12    -0.278 OA
DOCKED: BRANCH  28  29
DOCKED: ATOM     29  P   UNL d   1       1.021  13.075  -9.473 +0.02 -0.29    +0.473 P 
DOCKED: ATOM     30  O   UNL d   1       2.359  12.977  -8.834 -0.13 +0.19    -0.228 OA
DOCKED: BRANCH  29  31
DOCKED: ATOM     31  O   UNL d   1       0.823  14.223 -10.570 -0.02 +0.06    -0.303 OA
DOCKED: ATOM     32  H   UNL d   1       1.100  13.870 -11.447 +0.02 -0.03    +0.222 HD
DOCKED: ENDBRANCH  29  31
DOCKED: BRANCH  29  33
DOCKED: ATOM     33  O   UNL d   1      -0.224  13.296  -8.505 -0.15 +0.21    -0.303 OA
DOCKED: ATOM     34  H   UNL d   1      -0.589  12.415  -8.245 -0.23 -0.22    +0.222 HD
DOCKED: ENDBRANCH  29  33
DOCKED: ENDBRANCH  28  29
DOCKED: ENDBRANCH   3  28
DOCKED: BRANCH   5  35
DOCKED: ATOM     35  O   UNL d   1       1.903  10.282 -14.485 +0.00 -0.00    -0.278 OA
DOCKED: BRANCH  35  36
DOCKED: ATOM     36  P   UNL d   1       0.365  10.483 -14.857 +0.01 +0.00    +0.473 P 
DOCKED: ATOM     37  O   UNL d   1      -0.559  10.676 -13.698 -0.01 +0.01    -0.228 OA
DOCKED: BRANCH  36  38
DOCKED: ATOM     38  O   UNL d   1       0.430  11.721 -15.856 +0.00 -0.00    -0.303 OA
DOCKED: ATOM     39  H   UNL d   1       0.439  12.553 -15.336 +0.00 -0.00    +0.222 HD
DOCKED: ENDBRANCH  36  38
DOCKED: BRANCH  36  40
DOCKED: ATOM     40  O   UNL d   1       0.081   9.239 -15.807 -0.00 -0.01    -0.303 OA
DOCKED: ATOM     41  H   UNL d   1       0.438   8.404 -15.431 +0.02 +0.01    +0.222 HD
DOCKED: ENDBRANCH  36  40
DOCKED: ENDBRANCH  35  36
DOCKED: ENDBRANCH   5  35
DOCKED: BRANCH   4  42
DOCKED: ATOM     42  O   UNL d   1       2.351  12.370 -12.502 -0.00 +0.01    -0.278 OA
DOCKED: BRANCH  42  43
DOCKED: ATOM     43  P   UNL d   1       1.763  13.524 -13.434 +0.01 -0.01    +0.473 P 
DOCKED: ATOM     44  O   UNL d   1       0.282  13.677 -13.485 +0.00 +0.01    -0.228 OA
DOCKED: BRANCH  43  45
DOCKED: ATOM     45  O   UNL d   1       2.534  14.816 -12.917 +0.00 +0.01    -0.303 OA
DOCKED: ATOM     46  H   UNL d   1       2.236  15.078 -12.023 +0.01 -0.01    +0.222 HD
DOCKED: ENDBRANCH  43  45
DOCKED: BRANCH  43  47
DOCKED: ATOM     47  O   UNL d   1       2.480  13.258 -14.842 +0.00 -0.00    -0.303 OA
DOCKED: ATOM     48  H   UNL d   1       2.372  12.315 -15.087 +0.00 +0.00    +0.222 HD
DOCKED: ENDBRANCH  43  47
DOCKED: ENDBRANCH  42  43
DOCKED: ENDBRANCH   4  42
DOCKED: TORSDOF 24
DOCKED: TER
DOCKED: ENDMDL
________________________________________________________________________________


	BEGINNING GENETIC ALGORITHM DOCKING 20 of 100
Run: 20 Seed: 565071873 1117236431 [ Run 20 of 100 GA/GALS ]
Beginning LAMARCKIAN GENETIC ALGORITHM (LGA), with a maximum of 25000000 energy evaluations.

Final-Value: -17.515


	FINAL GENETIC ALGORITHM DOCKED STATE
	_______________________________________________


Detailed state:  trans 16.455 -13.025 -8.027 quatxyzw -0.151084 0.869397 0.361106 0.301536 center 0.035 0.082 -0.065 ntor 24 -85.5109 -179.8540 -177.6089 -15.0528 -166.9188 139.6341 -56.6487 -22.0207 -12.0738 60.2016 116.5728 175.6858 43.5033 -179.9481 170.1108 -12.2994 -5.3814 111.7657 32.4248 17.2249 -5.3850 4.9550 -180.0000 -4.7638
State:	 16.455 -13.025  -8.027  -0.158  0.912  0.379 144.900    -85.51 -179.85 -177.61  -15.05 -166.92  139.63  -56.65  -22.02  -12.07   60.20  116.57  175.69   43.50 -179.95  170.11  -12.30   -5.38  111.77   32.42   17.22   -5.38    4.95 -180.00   -4.76

DOCKED: MODEL       20
DOCKED: USER    Run = 20
DOCKED: USER    DPF = D:/Protein_go_brrr/autodock/final/mut_D99N/IHP/dock.dpf
DOCKED: USER  
DOCKED: USER    Estimated Free Energy of Binding    =   +3.01 kcal/mol  [=(1)+(2)+(3)-(4)]
DOCKED: USER    
DOCKED: USER    (1) Final Intermolecular Energy     =   -4.15 kcal/mol
DOCKED: USER        vdW + Hbond + desolv Energy     =   -4.05 kcal/mol
DOCKED: USER        Electrostatic Energy            =   -0.09 kcal/mol
DOCKED: USER    (2) Final Total Internal Energy     =  -13.37 kcal/mol
DOCKED: USER    (3) Torsional Free Energy           =   +7.16 kcal/mol
DOCKED: USER    (4) Unbound System's Energy  [=(2)] =  -13.37 kcal/mol
DOCKED: USER    
DOCKED: USER    
DOCKED: USER    NEWDPF move IHP_ideal_opt.pdbqt
DOCKED: USER    NEWDPF about 0.035000 0.082000 -0.065000
DOCKED: USER    NEWDPF tran0 16.454983 -13.025366 -8.026534
DOCKED: USER    NEWDPF quaternion0 -0.151084 0.869397 0.361106 0.301536
DOCKED: USER    NEWDPF axisangle0 -0.158460 0.911839 0.378734 144.900214
DOCKED: USER    NEWDPF quat0 -0.158460 0.911839 0.378734 144.900214
DOCKED: USER    NEWDPF dihe0 -85.51 -179.85 -177.61 -15.05 -166.92 139.63 -56.65 -22.02 -12.07 60.20 116.57 175.69 43.50 -179.95 170.11 -12.30 -5.38 111.77 32.42 17.22 -5.38 4.95 -180.00 -4.76 
DOCKED: USER  keepresnum = 1 
DOCKED: USER  
DOCKED: REMARK  24 active torsions:
DOCKED: REMARK  status: ('A' for Active; 'I' for Inactive)
DOCKED: REMARK    1  A    between atoms: C_1  and  O_7 
DOCKED: REMARK    2  A    between atoms: C_2  and  O_12 
DOCKED: REMARK    3  A    between atoms: C_3  and  O_17 
DOCKED: REMARK    4  A    between atoms: C_4  and  O_22 
DOCKED: REMARK    5  A    between atoms: C_5  and  O_27 
DOCKED: REMARK    6  A    between atoms: C_6  and  O_32 
DOCKED: REMARK    7  A    between atoms: O_7  and  P_8 
DOCKED: REMARK    8  A    between atoms: P_8  and  O_10 
DOCKED: REMARK    9  A    between atoms: P_8  and  O_11 
DOCKED: REMARK   10  A    between atoms: O_12  and  P_13 
DOCKED: REMARK   11  A    between atoms: P_13  and  O_15 
DOCKED: REMARK   12  A    between atoms: P_13  and  O_16 
DOCKED: REMARK   13  A    between atoms: O_17  and  P_18 
DOCKED: REMARK   14  A    between atoms: P_18  and  O_20 
DOCKED: REMARK   15  A    between atoms: P_18  and  O_21 
DOCKED: REMARK   16  A    between atoms: O_22  and  P_23 
DOCKED: REMARK   17  A    between atoms: P_23  and  O_25 
DOCKED: REMARK   18  A    between atoms: P_23  and  O_26 
DOCKED: REMARK   19  A    between atoms: O_27  and  P_28 
DOCKED: REMARK   20  A    between atoms: P_28  and  O_30 
DOCKED: REMARK   21  A    between atoms: P_28  and  O_31 
DOCKED: REMARK   22  A    between atoms: O_32  and  P_33 
DOCKED: REMARK   23  A    between atoms: P_33  and  O_35 
DOCKED: REMARK   24  A    between atoms: P_33  and  O_36 
DOCKED: USER                              x       y       z     vdW  Elec       q    Type
DOCKED: USER                           _______ _______ _______ _____ _____    ______ ____
DOCKED: ROOT
DOCKED: ATOM      1  C   UNL d   1      15.026 -13.819  -8.586 -0.12 -0.00    +0.194 C 
DOCKED: ATOM      2  C   UNL d   1      16.260 -13.975  -9.476 -0.05 -0.00    +0.194 C 
DOCKED: ATOM      3  C   UNL d   1      17.017 -12.654  -9.632 -0.05 -0.00    +0.194 C 
DOCKED: ATOM      4  C   UNL d   1      17.348 -11.990  -8.298 -0.09 +0.01    +0.194 C 
DOCKED: ATOM      5  C   UNL d   1      16.172 -11.917  -7.332 -0.15 +0.01    +0.194 C 
DOCKED: ATOM      6  C   UNL d   1      15.378 -13.220  -7.223 -0.11 +0.00    +0.194 C 
DOCKED: ENDROOT
DOCKED: BRANCH   1   7
DOCKED: ATOM      7  O   UNL d   1      14.478 -15.118  -8.351 -0.08 +0.01    -0.278 OA
DOCKED: BRANCH   7   8
DOCKED: ATOM      8  P   UNL d   1      13.377 -15.672  -9.368 -0.16 -0.02    +0.473 P 
DOCKED: ATOM      9  O   UNL d   1      13.904 -16.538 -10.458 -0.12 +0.00    -0.228 OA
DOCKED: BRANCH   8  10
DOCKED: ATOM     10  O   UNL d   1      12.323 -16.416  -8.429 -0.13 +0.04    -0.303 OA
DOCKED: ATOM     11  H   UNL d   1      11.459 -15.969  -8.489 -0.48 -0.09    +0.222 HD
DOCKED: ENDBRANCH   8  10
DOCKED: BRANCH   8  12
DOCKED: ATOM     12  O   UNL d   1      12.561 -14.391  -9.832 -0.24 +0.04    -0.303 OA
DOCKED: ATOM     13  H   UNL d   1      12.403 -14.365 -10.803 -0.48 -0.05    +0.222 HD
DOCKED: ENDBRANCH   8  12
DOCKED: ENDBRANCH   7   8
DOCKED: ENDBRANCH   1   7
DOCKED: BRANCH   2  14
DOCKED: ATOM     14  O   UNL d   1      17.141 -14.940  -8.888 -0.01 +0.00    -0.278 OA
DOCKED: BRANCH  14  15
DOCKED: ATOM     15  P   UNL d   1      18.027 -15.810  -9.899 +0.00 -0.01    +0.473 P 
DOCKED: ATOM     16  O   UNL d   1      17.910 -17.298  -9.785 -0.00 +0.00    -0.228 OA
DOCKED: BRANCH  15  17
DOCKED: ATOM     17  O   UNL d   1      17.616 -15.268 -11.340 -0.01 +0.01    -0.303 OA
DOCKED: ATOM     18  H   UNL d   1      18.153 -14.492 -11.590 +0.02 -0.01    +0.222 HD
DOCKED: ENDBRANCH  15  17
DOCKED: BRANCH  15  19
DOCKED: ATOM     19  O   UNL d   1      19.497 -15.224  -9.745 -0.00 +0.00    -0.303 OA
DOCKED: ATOM     20  H   UNL d   1      19.589 -14.359 -10.186 +0.01 -0.00    +0.222 HD
DOCKED: ENDBRANCH  15  19
DOCKED: ENDBRANCH  14  15
DOCKED: ENDBRANCH   2  14
DOCKED: BRANCH   6  21
DOCKED: ATOM     21  O   UNL d   1      14.148 -12.900  -6.576 -0.15 -0.01    -0.278 OA
DOCKED: BRANCH  21  22
DOCKED: ATOM     22  P   UNL d   1      13.901 -13.367  -5.071 -0.14 +0.00    +0.473 P 
DOCKED: ATOM     23  O   UNL d   1      12.495 -13.439  -4.577 -0.36 +0.00    -0.228 OA
DOCKED: BRANCH  22  24
DOCKED: ATOM     24  O   UNL d   1      14.696 -14.745  -5.022 -0.04 -0.01    -0.303 OA
DOCKED: ATOM     25  H   UNL d   1      15.322 -14.712  -4.255 +0.07 +0.01    +0.222 HD
DOCKED: ENDBRANCH  22  24
DOCKED: BRANCH  22  26
DOCKED: ATOM     26  O   UNL d   1      14.881 -12.390  -4.262 -0.15 +0.02    -0.303 OA
DOCKED: ATOM     27  H   UNL d   1      15.681 -12.220  -4.800 +0.10 -0.01    +0.222 HD
DOCKED: ENDBRANCH  22  26
DOCKED: ENDBRANCH  21  22
DOCKED: ENDBRANCH   6  21
DOCKED: BRANCH   3  28
DOCKED: ATOM     28  O   UNL d   1      18.273 -12.949 -10.229 -0.01 +0.00    -0.278 OA
DOCKED: BRANCH  28  29
DOCKED: ATOM     29  P   UNL d   1      18.628 -12.386 -11.676 -0.00 -0.01    +0.473 P 
DOCKED: ATOM     30  O   UNL d   1      17.506 -12.371 -12.650 -0.06 +0.02    -0.228 OA
DOCKED: BRANCH  29  31
DOCKED: ATOM     31  O   UNL d   1      19.262 -10.971 -11.278 -0.03 -0.00    -0.303 OA
DOCKED: ATOM     32  H   UNL d   1      19.168 -10.848 -10.305 +0.04 +0.01    +0.222 HD
DOCKED: ENDBRANCH  29  31
DOCKED: BRANCH  29  33
DOCKED: ATOM     33  O   UNL d   1      19.908 -13.248 -12.066 -0.00 +0.01    -0.303 OA
DOCKED: ATOM     34  H   UNL d   1      19.792 -14.168 -11.723 +0.01 -0.01    +0.222 HD
DOCKED: ENDBRANCH  29  33
DOCKED: ENDBRANCH  28  29
DOCKED: ENDBRANCH   3  28
DOCKED: BRANCH   5  35
DOCKED: ATOM     35  O   UNL d   1      16.741 -11.663  -6.049 -0.14 -0.01    -0.278 OA
DOCKED: BRANCH  35  36
DOCKED: ATOM     36  P   UNL d   1      17.956 -12.549  -5.518 -0.05 +0.01    +0.473 P 
DOCKED: ATOM     37  O   UNL d   1      18.980 -12.920  -6.543 -0.03 -0.01    -0.228 OA
DOCKED: BRANCH  36  38
DOCKED: ATOM     38  O   UNL d   1      18.517 -11.653  -4.327 -0.12 -0.01    -0.303 OA
DOCKED: ATOM     39  H   UNL d   1      19.106 -10.961  -4.696 +0.10 +0.02    +0.222 HD
DOCKED: ENDBRANCH  36  38
DOCKED: BRANCH  36  40
DOCKED: ATOM     40  O   UNL d   1      17.209 -13.743  -4.779 -0.02 -0.00    -0.303 OA
DOCKED: ATOM     41  H   UNL d   1      16.271 -13.818  -5.065 +0.06 +0.00    +0.222 HD
DOCKED: ENDBRANCH  36  40
DOCKED: ENDBRANCH  35  36
DOCKED: ENDBRANCH   5  35
DOCKED: BRANCH   4  42
DOCKED: ATOM     42  O   UNL d   1      17.738 -10.644  -8.590 -0.17 -0.03    -0.278 OA
DOCKED: BRANCH  42  43
DOCKED: ATOM     43  P   UNL d   1      19.231 -10.185  -8.266 -0.13 +0.08    +0.473 P 
DOCKED: ATOM     44  O   UNL d   1      19.766  -9.012  -9.012 -0.06 -0.04    -0.228 OA
DOCKED: BRANCH  43  45
DOCKED: ATOM     45  O   UNL d   1      19.202  -9.994  -6.687 -0.56 -0.12    -0.303 OA
DOCKED: ATOM     46  H   UNL d   1      18.728 -10.727  -6.246 +0.07 +0.05    +0.222 HD
DOCKED: ENDBRANCH  43  45
DOCKED: BRANCH  43  47
DOCKED: ATOM     47  O   UNL d   1      20.071 -11.542  -8.415 -0.03 -0.02    -0.303 OA
DOCKED: ATOM     48  H   UNL d   1      19.455 -12.287  -8.574 +0.03 +0.01    +0.222 HD
DOCKED: ENDBRANCH  43  47
DOCKED: ENDBRANCH  42  43
DOCKED: ENDBRANCH   4  42
DOCKED: TORSDOF 24
DOCKED: TER
DOCKED: ENDMDL
________________________________________________________________________________


	BEGINNING GENETIC ALGORITHM DOCKING 21 of 100
Run: 21 Seed: 162959525 1880755905 [ Run 21 of 100 GA/GALS ]
Beginning LAMARCKIAN GENETIC ALGORITHM (LGA), with a maximum of 25000000 energy evaluations.

Final-Value: -18.396


	FINAL GENETIC ALGORITHM DOCKED STATE
	_______________________________________________


Detailed state:  trans -5.084 16.062 13.216 quatxyzw 0.585475 0.329707 0.084454 -0.735785 center 0.035 0.082 -0.065 ntor 24 -118.7913 -6.8039 33.6021 -70.9950 -23.3867 164.6286 2.8182 -151.7680 -52.1768 55.6933 133.4911 -180.0000 112.4505 -69.8694 -93.9243 114.0697 52.4124 -135.5071 -15.6493 13.4071 148.1377 -11.2433 -15.6182 158.0075
State:	 -5.084  16.062  13.216   0.865  0.487  0.125 -85.253   -118.79   -6.80   33.60  -70.99  -23.39  164.63    2.82 -151.77  -52.18   55.69  133.49 -180.00  112.45  -69.87  -93.92  114.07   52.41 -135.51  -15.65   13.41  148.14  -11.24  -15.62  158.01

DOCKED: MODEL       21
DOCKED: USER    Run = 21
DOCKED: USER    DPF = D:/Protein_go_brrr/autodock/final/mut_D99N/IHP/dock.dpf
DOCKED: USER  
DOCKED: USER    Estimated Free Energy of Binding    =   +1.55 kcal/mol  [=(1)+(2)+(3)-(4)]
DOCKED: USER    
DOCKED: USER    (1) Final Intermolecular Energy     =   -5.60 kcal/mol
DOCKED: USER        vdW + Hbond + desolv Energy     =   -5.47 kcal/mol
DOCKED: USER        Electrostatic Energy            =   -0.14 kcal/mol
DOCKED: USER    (2) Final Total Internal Energy     =  -12.79 kcal/mol
DOCKED: USER    (3) Torsional Free Energy           =   +7.16 kcal/mol
DOCKED: USER    (4) Unbound System's Energy  [=(2)] =  -12.79 kcal/mol
DOCKED: USER    
DOCKED: USER    
DOCKED: USER    NEWDPF move IHP_ideal_opt.pdbqt
DOCKED: USER    NEWDPF about 0.035000 0.082000 -0.065000
DOCKED: USER    NEWDPF tran0 -5.083544 16.062245 13.215994
DOCKED: USER    NEWDPF quaternion0 0.585475 0.329707 0.084454 -0.735785
DOCKED: USER    NEWDPF axisangle0 0.864534 0.486857 0.124707 -85.252843
DOCKED: USER    NEWDPF quat0 0.864534 0.486857 0.124707 -85.252843
DOCKED: USER    NEWDPF dihe0 -118.79 -6.80 33.60 -70.99 -23.39 164.63 2.82 -151.77 -52.18 55.69 133.49 -180.00 112.45 -69.87 -93.92 114.07 52.41 -135.51 -15.65 13.41 148.14 -11.24 -15.62 158.01 
DOCKED: USER  keepresnum = 1 
DOCKED: USER  
DOCKED: REMARK  24 active torsions:
DOCKED: REMARK  status: ('A' for Active; 'I' for Inactive)
DOCKED: REMARK    1  A    between atoms: C_1  and  O_7 
DOCKED: REMARK    2  A    between atoms: C_2  and  O_12 
DOCKED: REMARK    3  A    between atoms: C_3  and  O_17 
DOCKED: REMARK    4  A    between atoms: C_4  and  O_22 
DOCKED: REMARK    5  A    between atoms: C_5  and  O_27 
DOCKED: REMARK    6  A    between atoms: C_6  and  O_32 
DOCKED: REMARK    7  A    between atoms: O_7  and  P_8 
DOCKED: REMARK    8  A    between atoms: P_8  and  O_10 
DOCKED: REMARK    9  A    between atoms: P_8  and  O_11 
DOCKED: REMARK   10  A    between atoms: O_12  and  P_13 
DOCKED: REMARK   11  A    between atoms: P_13  and  O_15 
DOCKED: REMARK   12  A    between atoms: P_13  and  O_16 
DOCKED: REMARK   13  A    between atoms: O_17  and  P_18 
DOCKED: REMARK   14  A    between atoms: P_18  and  O_20 
DOCKED: REMARK   15  A    between atoms: P_18  and  O_21 
DOCKED: REMARK   16  A    between atoms: O_22  and  P_23 
DOCKED: REMARK   17  A    between atoms: P_23  and  O_25 
DOCKED: REMARK   18  A    between atoms: P_23  and  O_26 
DOCKED: REMARK   19  A    between atoms: O_27  and  P_28 
DOCKED: REMARK   20  A    between atoms: P_28  and  O_30 
DOCKED: REMARK   21  A    between atoms: P_28  and  O_31 
DOCKED: REMARK   22  A    between atoms: O_32  and  P_33 
DOCKED: REMARK   23  A    between atoms: P_33  and  O_35 
DOCKED: REMARK   24  A    between atoms: P_33  and  O_36 
DOCKED: USER                              x       y       z     vdW  Elec       q    Type
DOCKED: USER                           _______ _______ _______ _____ _____    ______ ____
DOCKED: ROOT
DOCKED: ATOM      1  C   UNL d   1      -3.891  15.798  11.994 -0.14 -0.05    +0.194 C 
DOCKED: ATOM      2  C   UNL d   1      -5.276  15.217  11.703 -0.16 -0.04    +0.194 C 
DOCKED: ATOM      3  C   UNL d   1      -5.877  14.538  12.936 -0.15 -0.05    +0.194 C 
DOCKED: ATOM      4  C   UNL d   1      -5.874  15.430  14.175 -0.06 -0.04    +0.194 C 
DOCKED: ATOM      5  C   UNL d   1      -4.542  16.122  14.439 -0.07 -0.03    +0.194 C 
DOCKED: ATOM      6  C   UNL d   1      -3.912  16.747  13.193 -0.05 -0.03    +0.194 C 
DOCKED: ENDROOT
DOCKED: BRANCH   1   7
DOCKED: ATOM      7  O   UNL d   1      -3.478  16.557  10.856 -0.11 +0.04    -0.278 OA
DOCKED: BRANCH   7   8
DOCKED: ATOM      8  P   UNL d   1      -1.962  16.431  10.369 -0.17 -0.05    +0.473 P 
DOCKED: ATOM      9  O   UNL d   1      -1.695  16.939   8.996 -0.27 -0.00    -0.228 OA
DOCKED: BRANCH   8  10
DOCKED: ATOM     10  O   UNL d   1      -1.129  17.197  11.494 -0.07 +0.02    -0.303 OA
DOCKED: ATOM     11  H   UNL d   1      -0.964  16.597  12.244 +0.06 -0.03    +0.222 HD
DOCKED: ENDBRANCH   8  10
DOCKED: BRANCH   8  12
DOCKED: ATOM     12  O   UNL d   1      -1.566  14.916  10.637 -0.15 +0.07    -0.303 OA
DOCKED: ATOM     13  H   UNL d   1      -1.756  14.625  11.558 -0.15 -0.11    +0.222 HD
DOCKED: ENDBRANCH   8  12
DOCKED: ENDBRANCH   7   8
DOCKED: ENDBRANCH   1   7
DOCKED: BRANCH   2  14
DOCKED: ATOM     14  O   UNL d   1      -6.150  16.276  11.294 -0.05 +0.04    -0.278 OA
DOCKED: BRANCH  14  15
DOCKED: ATOM     15  P   UNL d   1      -7.247  15.911  10.186 -0.12 -0.10    +0.473 P 
DOCKED: ATOM     16  O   UNL d   1      -7.053  14.625   9.446 -0.25 +0.04    -0.228 OA
DOCKED: BRANCH  15  17
DOCKED: ATOM     17  O   UNL d   1      -8.630  15.968  10.975 -0.10 +0.12    -0.303 OA
DOCKED: ATOM     18  H   UNL d   1      -8.654  15.303  11.690 +0.07 -0.08    +0.222 HD
DOCKED: ENDBRANCH  15  17
DOCKED: BRANCH  15  19
DOCKED: ATOM     19  O   UNL d   1      -7.344  17.215   9.279 -0.07 +0.04    -0.303 OA
DOCKED: ATOM     20  H   UNL d   1      -8.269  17.494   9.146 +0.05 -0.05    +0.222 HD
DOCKED: ENDBRANCH  15  19
DOCKED: ENDBRANCH  14  15
DOCKED: ENDBRANCH   2  14
DOCKED: BRANCH   6  21
DOCKED: ATOM     21  O   UNL d   1      -2.555  17.038  13.519 -0.03 +0.04    -0.278 OA
DOCKED: BRANCH  21  22
DOCKED: ATOM     22  P   UNL d   1      -1.670  15.945  14.272 -0.13 -0.09    +0.473 P 
DOCKED: ATOM     23  O   UNL d   1      -2.076  15.536  15.648 -0.14 +0.03    -0.228 OA
DOCKED: BRANCH  22  24
DOCKED: ATOM     24  O   UNL d   1      -1.636  14.763  13.207 -0.22 +0.11    -0.303 OA
DOCKED: ATOM     25  H   UNL d   1      -2.413  14.172  13.378 -0.40 -0.13    +0.222 HD
DOCKED: ENDBRANCH  22  24
DOCKED: BRANCH  22  26
DOCKED: ATOM     26  O   UNL d   1      -0.197  16.563  14.128 -0.07 +0.05    -0.303 OA
DOCKED: ATOM     27  H   UNL d   1      -0.226  17.323  13.512 +0.04 -0.02    +0.222 HD
DOCKED: ENDBRANCH  22  26
DOCKED: ENDBRANCH  21  22
DOCKED: ENDBRANCH   6  21
DOCKED: BRANCH   3  28
DOCKED: ATOM     28  O   UNL d   1      -7.247  14.282  12.659 -0.09 +0.06    -0.278 OA
DOCKED: BRANCH  28  29
DOCKED: ATOM     29  P   UNL d   1      -7.717  12.831  12.198 -0.26 -0.11    +0.473 P 
DOCKED: ATOM     30  O   UNL d   1      -8.059  11.890  13.295 -0.36 +0.06    -0.228 OA
DOCKED: BRANCH  29  31
DOCKED: ATOM     31  O   UNL d   1      -8.894  13.227  11.187 -0.02 +0.09    -0.303 OA
DOCKED: ATOM     32  H   UNL d   1      -8.534  13.851  10.516 +0.10 -0.08    +0.222 HD
DOCKED: ENDBRANCH  29  31
DOCKED: BRANCH  29  33
DOCKED: ATOM     33  O   UNL d   1      -6.542  12.396  11.215 -0.33 +0.06    -0.303 OA
DOCKED: ATOM     34  H   UNL d   1      -6.786  12.648  10.291 +0.12 -0.05    +0.222 HD
DOCKED: ENDBRANCH  29  33
DOCKED: ENDBRANCH  28  29
DOCKED: ENDBRANCH   3  28
DOCKED: BRANCH   5  35
DOCKED: ATOM     35  O   UNL d   1      -4.831  17.186  15.343 -0.01 +0.03    -0.278 OA
DOCKED: BRANCH  35  36
DOCKED: ATOM     36  P   UNL d   1      -4.227  17.174  16.819 -0.02 -0.05    +0.473 P 
DOCKED: ATOM     37  O   UNL d   1      -2.976  17.972  17.010 -0.03 +0.02    -0.228 OA
DOCKED: BRANCH  36  38
DOCKED: ATOM     38  O   UNL d   1      -5.466  17.682  17.682 -0.00 +0.03    -0.303 OA
DOCKED: ATOM     39  H   UNL d   1      -5.204  18.489  18.175 +0.01 -0.02    +0.222 HD
DOCKED: ENDBRANCH  36  38
DOCKED: BRANCH  36  40
DOCKED: ATOM     40  O   UNL d   1      -4.148  15.619  17.141 -0.08 +0.04    -0.303 OA
DOCKED: ATOM     41  H   UNL d   1      -4.259  15.073  16.331 +0.06 -0.04    +0.222 HD
DOCKED: ENDBRANCH  36  40
DOCKED: ENDBRANCH  35  36
DOCKED: ENDBRANCH   5  35
DOCKED: BRANCH   4  42
DOCKED: ATOM     42  O   UNL d   1      -6.137  14.582  15.297 -0.07 +0.06    -0.278 OA
DOCKED: BRANCH  42  43
DOCKED: ATOM     43  P   UNL d   1      -5.333  13.210  15.433 -0.20 -0.11    +0.473 P 
DOCKED: ATOM     44  O   UNL d   1      -5.927  12.001  14.797 -0.57 +0.06    -0.228 OA
DOCKED: BRANCH  43  45
DOCKED: ATOM     45  O   UNL d   1      -3.891  13.595  14.881 -0.26 +0.10    -0.303 OA
DOCKED: ATOM     46  H   UNL d   1      -3.482  14.306  15.413 +0.08 -0.05    +0.222 HD
DOCKED: ENDBRANCH  43  45
DOCKED: BRANCH  43  47
DOCKED: ATOM     47  O   UNL d   1      -5.060  13.100  17.008 -0.71 +0.13    -0.303 OA
DOCKED: ATOM     48  H   UNL d   1      -5.432  13.888  17.456 +0.07 -0.08    +0.222 HD
DOCKED: ENDBRANCH  43  47
DOCKED: ENDBRANCH  42  43
DOCKED: ENDBRANCH   4  42
DOCKED: TORSDOF 24
DOCKED: TER
DOCKED: ENDMDL
________________________________________________________________________________


	BEGINNING GENETIC ALGORITHM DOCKING 22 of 100
Run: 22 Seed: 2098832524 46119457 [ Run 22 of 100 GA/GALS ]
Beginning LAMARCKIAN GENETIC ALGORITHM (LGA), with a maximum of 25000000 energy evaluations.

Final-Value: -17.507


	FINAL GENETIC ALGORITHM DOCKED STATE
	_______________________________________________


Detailed state:  trans 13.204 -13.445 -20.928 quatxyzw 0.042362 0.030860 -0.542281 0.838561 center 0.035 0.082 -0.065 ntor 24 91.9540 157.1522 127.7105 123.7914 109.5990 85.4905 -55.0898 7.1706 1.8205 11.8889 46.8185 123.1592 -72.2786 76.5144 -175.6338 137.6520 -179.8529 -172.9205 -146.0767 -2.6036 12.5016 -18.0983 -175.8950 15.7317
State:	 13.204 -13.445 -20.928   0.078  0.057 -0.995 66.023     91.95  157.15  127.71  123.79  109.60   85.49  -55.09    7.17    1.82   11.89   46.82  123.16  -72.28   76.51 -175.63  137.65 -179.85 -172.92 -146.08   -2.60   12.50  -18.10 -175.89   15.73

DOCKED: MODEL       22
DOCKED: USER    Run = 22
DOCKED: USER    DPF = D:/Protein_go_brrr/autodock/final/mut_D99N/IHP/dock.dpf
DOCKED: USER  
DOCKED: USER    Estimated Free Energy of Binding    =   +4.54 kcal/mol  [=(1)+(2)+(3)-(4)]
DOCKED: USER    
DOCKED: USER    (1) Final Intermolecular Energy     =   -2.62 kcal/mol
DOCKED: USER        vdW + Hbond + desolv Energy     =   -1.92 kcal/mol
DOCKED: USER        Electrostatic Energy            =   -0.70 kcal/mol
DOCKED: USER    (2) Final Total Internal Energy     =  -14.88 kcal/mol
DOCKED: USER    (3) Torsional Free Energy           =   +7.16 kcal/mol
DOCKED: USER    (4) Unbound System's Energy  [=(2)] =  -14.88 kcal/mol
DOCKED: USER    
DOCKED: USER    
DOCKED: USER    NEWDPF move IHP_ideal_opt.pdbqt
DOCKED: USER    NEWDPF about 0.035000 0.082000 -0.065000
DOCKED: USER    NEWDPF tran0 13.203881 -13.445007 -20.927858
DOCKED: USER    NEWDPF quaternion0 0.042362 0.030860 -0.542281 0.838561
DOCKED: USER    NEWDPF axisangle0 0.077757 0.056645 -0.995362 66.023005
DOCKED: USER    NEWDPF quat0 0.077757 0.056645 -0.995362 66.023005
DOCKED: USER    NEWDPF dihe0 91.95 157.15 127.71 123.79 109.60 85.49 -55.09 7.17 1.82 11.89 46.82 123.16 -72.28 76.51 -175.63 137.65 -179.85 -172.92 -146.08 -2.60 12.50 -18.10 -175.89 15.73 
DOCKED: USER  keepresnum = 1 
DOCKED: USER  
DOCKED: REMARK  24 active torsions:
DOCKED: REMARK  status: ('A' for Active; 'I' for Inactive)
DOCKED: REMARK    1  A    between atoms: C_1  and  O_7 
DOCKED: REMARK    2  A    between atoms: C_2  and  O_12 
DOCKED: REMARK    3  A    between atoms: C_3  and  O_17 
DOCKED: REMARK    4  A    between atoms: C_4  and  O_22 
DOCKED: REMARK    5  A    between atoms: C_5  and  O_27 
DOCKED: REMARK    6  A    between atoms: C_6  and  O_32 
DOCKED: REMARK    7  A    between atoms: O_7  and  P_8 
DOCKED: REMARK    8  A    between atoms: P_8  and  O_10 
DOCKED: REMARK    9  A    between atoms: P_8  and  O_11 
DOCKED: REMARK   10  A    between atoms: O_12  and  P_13 
DOCKED: REMARK   11  A    between atoms: P_13  and  O_15 
DOCKED: REMARK   12  A    between atoms: P_13  and  O_16 
DOCKED: REMARK   13  A    between atoms: O_17  and  P_18 
DOCKED: REMARK   14  A    between atoms: P_18  and  O_20 
DOCKED: REMARK   15  A    between atoms: P_18  and  O_21 
DOCKED: REMARK   16  A    between atoms: O_22  and  P_23 
DOCKED: REMARK   17  A    between atoms: P_23  and  O_25 
DOCKED: REMARK   18  A    between atoms: P_23  and  O_26 
DOCKED: REMARK   19  A    between atoms: O_27  and  P_28 
DOCKED: REMARK   20  A    between atoms: P_28  and  O_30 
DOCKED: REMARK   21  A    between atoms: P_28  and  O_31 
DOCKED: REMARK   22  A    between atoms: O_32  and  P_33 
DOCKED: REMARK   23  A    between atoms: P_33  and  O_35 
DOCKED: REMARK   24  A    between atoms: P_33  and  O_36 
DOCKED: USER                              x       y       z     vdW  Elec       q    Type
DOCKED: USER                           _______ _______ _______ _____ _____    ______ ____
DOCKED: ROOT
DOCKED: ATOM      1  C   UNL d   1      14.446 -12.635 -20.041 -0.11 -0.16    +0.194 C 
DOCKED: ATOM      2  C   UNL d   1      14.699 -14.115 -20.331 -0.08 -0.15    +0.194 C 
DOCKED: ATOM      3  C   UNL d   1      13.444 -14.960 -20.105 +0.00 -0.20    +0.194 C 
DOCKED: ATOM      4  C   UNL d   1      12.219 -14.428 -20.846 -0.14 -0.11    +0.194 C 
DOCKED: ATOM      5  C   UNL d   1      11.994 -12.931 -20.677 -0.18 -0.11    +0.194 C 
DOCKED: ATOM      6  C   UNL d   1      13.262 -12.091 -20.843 -0.14 -0.10    +0.194 C 
DOCKED: ENDROOT
DOCKED: BRANCH   1   7
DOCKED: ATOM      7  O   UNL d   1      15.604 -11.898 -20.439 -0.04 +0.11    -0.278 OA
DOCKED: BRANCH   7   8
DOCKED: ATOM      8  P   UNL d   1      15.661 -11.318 -21.926 +0.01 -0.09    +0.473 P 
DOCKED: ATOM      9  O   UNL d   1      14.752 -11.984 -22.898 -0.01 +0.04    -0.228 OA
DOCKED: BRANCH   8  10
DOCKED: ATOM     10  O   UNL d   1      15.359  -9.762 -21.747 -0.00 +0.04    -0.303 OA
DOCKED: ATOM     11  H   UNL d   1      14.445  -9.641 -21.430 +0.03 -0.04    +0.222 HD
DOCKED: ENDBRANCH   8  10
DOCKED: BRANCH   8  12
DOCKED: ATOM     12  O   UNL d   1      17.203 -11.316 -22.309 +0.00 +0.03    -0.303 OA
DOCKED: ATOM     13  H   UNL d   1      17.427 -11.966 -23.013 +0.00 -0.02    +0.222 HD
DOCKED: ENDBRANCH   8  12
DOCKED: ENDBRANCH   7   8
DOCKED: ENDBRANCH   1   7
DOCKED: BRANCH   2  14
DOCKED: ATOM     14  O   UNL d   1      15.107 -14.260 -21.698 -0.02 +0.09    -0.278 OA
DOCKED: BRANCH  14  15
DOCKED: ATOM     15  P   UNL d   1      16.444 -15.101 -21.960 +0.01 -0.09    +0.473 P 
DOCKED: ATOM     16  O   UNL d   1      16.379 -16.153 -23.023 +0.00 +0.03    -0.228 OA
DOCKED: BRANCH  15  17
DOCKED: ATOM     17  O   UNL d   1      17.548 -13.991 -22.257 +0.00 +0.04    -0.303 OA
DOCKED: ATOM     18  H   UNL d   1      17.365 -13.172 -21.758 +0.01 -0.04    +0.222 HD
DOCKED: ENDBRANCH  15  17
DOCKED: BRANCH  15  19
DOCKED: ATOM     19  O   UNL d   1      16.882 -15.609 -20.518 -0.01 +0.08    -0.303 OA
DOCKED: ATOM     20  H   UNL d   1      16.224 -16.218 -20.135 +0.02 -0.08    +0.222 HD
DOCKED: ENDBRANCH  15  19
DOCKED: ENDBRANCH  14  15
DOCKED: ENDBRANCH   2  14
DOCKED: BRANCH   6  21
DOCKED: ATOM     21  O   UNL d   1      12.968 -10.795 -20.327 -0.15 +0.12    -0.278 OA
DOCKED: BRANCH  21  22
DOCKED: ATOM     22  P   UNL d   1      12.372  -9.675 -21.294 -0.03 -0.07    +0.473 P 
DOCKED: ATOM     23  O   UNL d   1      12.774  -8.257 -21.063 -0.07 +0.02    -0.228 OA
DOCKED: BRANCH  22  24
DOCKED: ATOM     24  O   UNL d   1      12.750 -10.249 -22.730 -0.01 +0.04    -0.303 OA
DOCKED: ATOM     25  H   UNL d   1      12.554 -11.221 -22.734 +0.03 -0.03    +0.222 HD
DOCKED: ENDBRANCH  22  24
DOCKED: BRANCH  22  26
DOCKED: ATOM     26  O   UNL d   1      10.801  -9.981 -21.218 -0.13 +0.03    -0.303 OA
DOCKED: ATOM     27  H   UNL d   1      10.567 -10.638 -21.906 +0.06 -0.02    +0.222 HD
DOCKED: ENDBRANCH  22  26
DOCKED: ENDBRANCH  21  22
DOCKED: ENDBRANCH   6  21
DOCKED: BRANCH   3  28
DOCKED: ATOM     28  O   UNL d   1      13.688 -16.248 -20.657 -0.05 +0.14    -0.278 OA
DOCKED: BRANCH  28  29
DOCKED: ATOM     29  P   UNL d   1      14.273 -17.416 -19.745 -0.03 -0.21    +0.473 P 
DOCKED: ATOM     30  O   UNL d   1      13.342 -18.540 -19.470 -0.02 +0.07    -0.228 OA
DOCKED: BRANCH  29  31
DOCKED: ATOM     31  O   UNL d   1      15.609 -17.760 -20.556 -0.00 +0.07    -0.303 OA
DOCKED: ATOM     32  H   UNL d   1      15.633 -17.207 -21.371 +0.01 -0.05    +0.222 HD
DOCKED: ENDBRANCH  29  31
DOCKED: BRANCH  29  33
DOCKED: ATOM     33  O   UNL d   1      14.823 -16.612 -18.485 -0.06 +0.29    -0.303 OA
DOCKED: ATOM     34  H   UNL d   1      14.060 -16.208 -18.004 -0.52 -0.46    +0.222 HD
DOCKED: ENDBRANCH  29  33
DOCKED: ENDBRANCH  28  29
DOCKED: ENDBRANCH   3  28
DOCKED: BRANCH   5  35
DOCKED: ATOM     35  O   UNL d   1      11.101 -12.554 -21.723 -0.09 +0.06    -0.278 OA
DOCKED: BRANCH  35  36
DOCKED: ATOM     36  P   UNL d   1      11.338 -13.077 -23.211 -0.00 -0.06    +0.473 P 
DOCKED: ATOM     37  O   UNL d   1      11.187 -12.050 -24.288 -0.01 +0.02    -0.228 OA
DOCKED: BRANCH  36  38
DOCKED: ATOM     38  O   UNL d   1      12.798 -13.706 -23.107 -0.01 +0.05    -0.303 OA
DOCKED: ATOM     39  H   UNL d   1      13.449 -12.985 -22.966 +0.02 -0.04    +0.222 HD
DOCKED: ENDBRANCH  36  38
DOCKED: BRANCH  36  40
DOCKED: ATOM     40  O   UNL d   1      10.380 -14.344 -23.283 -0.02 +0.03    -0.303 OA
DOCKED: ATOM     41  H   UNL d   1      10.273 -14.770 -22.404 +0.03 -0.03    +0.222 HD
DOCKED: ENDBRANCH  36  40
DOCKED: ENDBRANCH  35  36
DOCKED: ENDBRANCH   5  35
DOCKED: BRANCH   4  42
DOCKED: ATOM     42  O   UNL d   1      11.078 -15.091 -20.290 -0.09 +0.13    -0.278 OA
DOCKED: BRANCH  42  43
DOCKED: ATOM     43  P   UNL d   1      10.515 -16.396 -21.015 -0.05 -0.10    +0.473 P 
DOCKED: ATOM     44  O   UNL d   1       9.066 -16.418 -21.360 -0.07 +0.02    -0.228 OA
DOCKED: BRANCH  43  45
DOCKED: ATOM     45  O   UNL d   1      11.485 -16.545 -22.268 -0.01 +0.05    -0.303 OA
DOCKED: ATOM     46  H   UNL d   1      11.862 -15.682 -22.533 +0.02 -0.04    +0.222 HD
DOCKED: ENDBRANCH  43  45
DOCKED: BRANCH  43  47
DOCKED: ATOM     47  O   UNL d   1      11.020 -17.587 -20.069 -0.05 +0.08    -0.303 OA
DOCKED: ATOM     48  H   UNL d   1      11.997 -17.552 -19.999 +0.03 -0.08    +0.222 HD
DOCKED: ENDBRANCH  43  47
DOCKED: ENDBRANCH  42  43
DOCKED: ENDBRANCH   4  42
DOCKED: TORSDOF 24
DOCKED: TER
DOCKED: ENDMDL
________________________________________________________________________________


	BEGINNING GENETIC ALGORITHM DOCKING 23 of 100
Run: 23 Seed: 60025037 1178712817 [ Run 23 of 100 GA/GALS ]
Beginning LAMARCKIAN GENETIC ALGORITHM (LGA), with a maximum of 25000000 energy evaluations.

Final-Value: -19.920


	FINAL GENETIC ALGORITHM DOCKED STATE
	_______________________________________________


Detailed state:  trans 9.750 7.499 -4.466 quatxyzw 0.443501 -0.664043 0.359888 0.482530 center 0.035 0.082 -0.065 ntor 24 129.7111 42.0062 163.0486 128.1343 26.9243 -102.5658 -24.4281 -143.0792 68.5746 85.1124 19.6650 -168.2442 -34.4454 78.2977 -55.2601 -49.3163 116.3996 147.5951 51.9382 9.1817 179.9444 10.4535 -6.6889 -10.5618
State:	  9.750   7.499  -4.466   0.506 -0.758  0.411 122.299    129.71   42.01  163.05  128.13   26.92 -102.57  -24.43 -143.08   68.57   85.11   19.67 -168.24  -34.45   78.30  -55.26  -49.32  116.40  147.60   51.94    9.18  179.94   10.45   -6.69  -10.56

DOCKED: MODEL       23
DOCKED: USER    Run = 23
DOCKED: USER    DPF = D:/Protein_go_brrr/autodock/final/mut_D99N/IHP/dock.dpf
DOCKED: USER  
DOCKED: USER    Estimated Free Energy of Binding    =   +2.00 kcal/mol  [=(1)+(2)+(3)-(4)]
DOCKED: USER    
DOCKED: USER    (1) Final Intermolecular Energy     =   -5.16 kcal/mol
DOCKED: USER        vdW + Hbond + desolv Energy     =   -4.96 kcal/mol
DOCKED: USER        Electrostatic Energy            =   -0.20 kcal/mol
DOCKED: USER    (2) Final Total Internal Energy     =  -14.76 kcal/mol
DOCKED: USER    (3) Torsional Free Energy           =   +7.16 kcal/mol
DOCKED: USER    (4) Unbound System's Energy  [=(2)] =  -14.76 kcal/mol
DOCKED: USER    
DOCKED: USER    
DOCKED: USER    NEWDPF move IHP_ideal_opt.pdbqt
DOCKED: USER    NEWDPF about 0.035000 0.082000 -0.065000
DOCKED: USER    NEWDPF tran0 9.749549 7.499456 -4.465838
DOCKED: USER    NEWDPF quaternion0 0.443501 -0.664043 0.359888 0.482530
DOCKED: USER    NEWDPF axisangle0 0.506349 -0.758144 0.410887 122.298500
DOCKED: USER    NEWDPF quat0 0.506349 -0.758144 0.410887 122.298500
DOCKED: USER    NEWDPF dihe0 129.71 42.01 163.05 128.13 26.92 -102.57 -24.43 -143.08 68.57 85.11 19.67 -168.24 -34.45 78.30 -55.26 -49.32 116.40 147.60 51.94 9.18 179.94 10.45 -6.69 -10.56 
DOCKED: USER  keepresnum = 1 
DOCKED: USER  
DOCKED: REMARK  24 active torsions:
DOCKED: REMARK  status: ('A' for Active; 'I' for Inactive)
DOCKED: REMARK    1  A    between atoms: C_1  and  O_7 
DOCKED: REMARK    2  A    between atoms: C_2  and  O_12 
DOCKED: REMARK    3  A    between atoms: C_3  and  O_17 
DOCKED: REMARK    4  A    between atoms: C_4  and  O_22 
DOCKED: REMARK    5  A    between atoms: C_5  and  O_27 
DOCKED: REMARK    6  A    between atoms: C_6  and  O_32 
DOCKED: REMARK    7  A    between atoms: O_7  and  P_8 
DOCKED: REMARK    8  A    between atoms: P_8  and  O_10 
DOCKED: REMARK    9  A    between atoms: P_8  and  O_11 
DOCKED: REMARK   10  A    between atoms: O_12  and  P_13 
DOCKED: REMARK   11  A    between atoms: P_13  and  O_15 
DOCKED: REMARK   12  A    between atoms: P_13  and  O_16 
DOCKED: REMARK   13  A    between atoms: O_17  and  P_18 
DOCKED: REMARK   14  A    between atoms: P_18  and  O_20 
DOCKED: REMARK   15  A    between atoms: P_18  and  O_21 
DOCKED: REMARK   16  A    between atoms: O_22  and  P_23 
DOCKED: REMARK   17  A    between atoms: P_23  and  O_25 
DOCKED: REMARK   18  A    between atoms: P_23  and  O_26 
DOCKED: REMARK   19  A    between atoms: O_27  and  P_28 
DOCKED: REMARK   20  A    between atoms: P_28  and  O_30 
DOCKED: REMARK   21  A    between atoms: P_28  and  O_31 
DOCKED: REMARK   22  A    between atoms: O_32  and  P_33 
DOCKED: REMARK   23  A    between atoms: P_33  and  O_35 
DOCKED: REMARK   24  A    between atoms: P_33  and  O_36 
DOCKED: USER                              x       y       z     vdW  Elec       q    Type
DOCKED: USER                           _______ _______ _______ _____ _____    ______ ____
DOCKED: ROOT
DOCKED: ATOM      1  C   UNL d   1      10.547   5.978  -4.282 -0.18 +0.01    +0.194 C 
DOCKED: ATOM      2  C   UNL d   1      10.563   6.886  -3.051 -0.11 +0.02    +0.194 C 
DOCKED: ATOM      3  C   UNL d   1      10.861   8.340  -3.422 -0.04 +0.03    +0.194 C 
DOCKED: ATOM      4  C   UNL d   1       9.951   8.878  -4.524 -0.08 +0.05    +0.194 C 
DOCKED: ATOM      5  C   UNL d   1       9.815   7.950  -5.725 -0.11 +0.05    +0.194 C 
DOCKED: ATOM      6  C   UNL d   1       9.578   6.485  -5.351 -0.11 +0.02    +0.194 C 
DOCKED: ENDROOT
DOCKED: BRANCH   1   7
DOCKED: ATOM      7  O   UNL d   1      10.095   4.684  -3.877 -0.28 +0.02    -0.278 OA
DOCKED: BRANCH   7   8
DOCKED: ATOM      8  P   UNL d   1      11.063   3.790  -2.974 -0.25 -0.01    +0.473 P 
DOCKED: ATOM      9  O   UNL d   1      12.170   4.532  -2.311 -0.13 -0.00    -0.228 OA
DOCKED: BRANCH   8  10
DOCKED: ATOM     10  O   UNL d   1      10.079   3.076  -1.941 -0.35 +0.04    -0.303 OA
DOCKED: ATOM     11  H   UNL d   1       9.295   3.637  -1.795 -0.36 -0.05    +0.222 HD
DOCKED: ENDBRANCH   8  10
DOCKED: BRANCH   8  12
DOCKED: ATOM     12  O   UNL d   1      11.500   2.581  -3.908 -0.71 -0.01    -0.303 OA
DOCKED: ATOM     13  H   UNL d   1      11.066   2.600  -4.790 -0.36 -0.08    +0.222 HD
DOCKED: ENDBRANCH   8  12
DOCKED: ENDBRANCH   7   8
DOCKED: ENDBRANCH   1   7
DOCKED: BRANCH   2  14
DOCKED: ATOM     14  O   UNL d   1       9.280   6.831  -2.414 -0.14 -0.06    -0.278 OA
DOCKED: BRANCH  14  15
DOCKED: ATOM     15  P   UNL d   1       9.276   6.820  -0.813 -0.12 +0.05    +0.473 P 
DOCKED: ATOM     16  O   UNL d   1       8.312   7.743  -0.136 -0.27 -0.01    -0.228 OA
DOCKED: BRANCH  15  17
DOCKED: ATOM     17  O   UNL d   1       9.034   5.291  -0.436 +0.01 +0.01    -0.303 OA
DOCKED: ATOM     18  H   UNL d   1       9.797   4.740  -0.694 +0.02 -0.03    +0.222 HD
DOCKED: ENDBRANCH  15  17
DOCKED: BRANCH  15  19
DOCKED: ATOM     19  O   UNL d   1      10.804   7.009  -0.411 -0.07 -0.01    -0.303 OA
DOCKED: ATOM     20  H   UNL d   1      11.128   7.900  -0.636 +0.05 +0.01    +0.222 HD
DOCKED: ENDBRANCH  15  19
DOCKED: ENDBRANCH  14  15
DOCKED: ENDBRANCH   2  14
DOCKED: BRANCH   6  21
DOCKED: ATOM     21  O   UNL d   1       9.815   5.716  -6.529 -0.18 -0.01    -0.278 OA
DOCKED: BRANCH  21  22
DOCKED: ATOM     22  P   UNL d   1      11.313   5.415  -6.990 -0.07 +0.03    +0.473 P 
DOCKED: ATOM     23  O   UNL d   1      12.385   6.360  -6.563 -0.02 -0.01    -0.228 OA
DOCKED: BRANCH  22  24
DOCKED: ATOM     24  O   UNL d   1      11.510   3.915  -6.496 -0.12 +0.01    -0.303 OA
DOCKED: ATOM     25  H   UNL d   1      11.068   3.820  -5.614 -0.06 -0.05    +0.222 HD
DOCKED: ENDBRANCH  22  24
DOCKED: BRANCH  22  26
DOCKED: ATOM     26  O   UNL d   1      11.134   5.223  -8.571 -0.09 -0.04    -0.303 OA
DOCKED: ATOM     27  H   UNL d   1      11.135   6.101  -9.004 +0.03 +0.03    +0.222 HD
DOCKED: ENDBRANCH  22  26
DOCKED: ENDBRANCH  21  22
DOCKED: ENDBRANCH   6  21
DOCKED: BRANCH   3  28
DOCKED: ATOM     28  O   UNL d   1      10.584   9.139  -2.280 -0.02 -0.04    -0.278 OA
DOCKED: BRANCH  28  29
DOCKED: ATOM     29  P   UNL d   1      11.727  10.038  -1.630 +0.01 +0.04    +0.473 P 
DOCKED: ATOM     30  O   UNL d   1      12.743   9.305  -0.833 -0.00 -0.01    -0.228 OA
DOCKED: BRANCH  29  31
DOCKED: ATOM     31  O   UNL d   1      12.245  10.814  -2.930 +0.01 -0.02    -0.303 OA
DOCKED: ATOM     32  H   UNL d   1      11.505  10.871  -3.578 +0.01 +0.03    +0.222 HD
DOCKED: ENDBRANCH  29  31
DOCKED: BRANCH  29  33
DOCKED: ATOM     33  O   UNL d   1      10.882  11.153  -0.869 -0.01 -0.03    -0.303 OA
DOCKED: ATOM     34  H   UNL d   1      10.644  11.868  -1.509 +0.02 +0.02    +0.222 HD
DOCKED: ENDBRANCH  29  33
DOCKED: ENDBRANCH  28  29
DOCKED: ENDBRANCH   3  28
DOCKED: BRANCH   5  35
DOCKED: ATOM     35  O   UNL d   1       8.658   8.396  -6.429 -0.24 -0.18    -0.278 OA
DOCKED: BRANCH  35  36
DOCKED: ATOM     36  P   UNL d   1       8.760   8.800  -7.969 -0.04 +0.21    +0.473 P 
DOCKED: ATOM     37  O   UNL d   1       7.466   8.818  -8.718 -0.12 -0.14    -0.228 OA
DOCKED: BRANCH  36  38
DOCKED: ATOM     38  O   UNL d   1       9.488  10.215  -7.887 -0.02 -0.09    -0.303 OA
DOCKED: ATOM     39  H   UNL d   1       9.641  10.443  -6.945 +0.02 +0.08    +0.222 HD
DOCKED: ENDBRANCH  36  38
DOCKED: BRANCH  36  40
DOCKED: ATOM     40  O   UNL d   1       9.891   7.819  -8.504 -0.02 -0.06    -0.303 OA
DOCKED: ATOM     41  H   UNL d   1       9.772   6.905  -8.162 +0.05 +0.04    +0.222 HD
DOCKED: ENDBRANCH  36  40
DOCKED: ENDBRANCH  35  36
DOCKED: ENDBRANCH   5  35
DOCKED: BRANCH   4  42
DOCKED: ATOM     42  O   UNL d   1      10.545  10.092  -4.996 -0.01 -0.06    -0.278 OA
DOCKED: BRANCH  42  43
DOCKED: ATOM     43  P   UNL d   1       9.700  11.443  -4.921 -0.01 +0.14    +0.473 P 
DOCKED: ATOM     44  O   UNL d   1      10.211  12.615  -5.685 +0.00 -0.04    -0.228 OA
DOCKED: BRANCH  43  45
DOCKED: ATOM     45  O   UNL d   1       8.244  10.969  -5.353 -0.55 -0.26    -0.303 OA
DOCKED: ATOM     46  H   UNL d   1       8.261  10.495  -6.208 +0.03 +0.22    +0.222 HD
DOCKED: ENDBRANCH  43  45
DOCKED: BRANCH  43  47
DOCKED: ATOM     47  O   UNL d   1       9.515  11.672  -3.345 -0.01 -0.07    -0.303 OA
DOCKED: ATOM     48  H   UNL d   1      10.093  11.048  -2.858 +0.03 +0.04    +0.222 HD
DOCKED: ENDBRANCH  43  47
DOCKED: ENDBRANCH  42  43
DOCKED: ENDBRANCH   4  42
DOCKED: TORSDOF 24
DOCKED: TER
DOCKED: ENDMDL
________________________________________________________________________________


	BEGINNING GENETIC ALGORITHM DOCKING 24 of 100
Run: 24 Seed: 1416200435 1742729024 [ Run 24 of 100 GA/GALS ]
Beginning LAMARCKIAN GENETIC ALGORITHM (LGA), with a maximum of 25000000 energy evaluations.

Final-Value: -18.627


	FINAL GENETIC ALGORITHM DOCKED STATE
	_______________________________________________


Detailed state:  trans -9.845 13.482 -9.301 quatxyzw -0.480425 0.600070 0.588207 -0.251237 center 0.035 0.082 -0.065 ntor 24 -179.7673 -34.7260 -179.2302 74.0114 -18.8195 -165.6979 -39.8225 -17.5081 179.6987 119.4988 158.1525 132.4682 108.6818 107.4346 6.6126 32.8727 -2.6127 180.0000 9.6243 -31.5310 166.7280 -42.9937 -39.6739 30.2512
State:	 -9.845  13.482  -9.301  -0.496  0.620  0.608 -150.899   -179.77  -34.73 -179.23   74.01  -18.82 -165.70  -39.82  -17.51  179.70  119.50  158.15  132.47  108.68  107.43    6.61   32.87   -2.61  180.00    9.62  -31.53  166.73  -42.99  -39.67   30.25

DOCKED: MODEL       24
DOCKED: USER    Run = 24
DOCKED: USER    DPF = D:/Protein_go_brrr/autodock/final/mut_D99N/IHP/dock.dpf
DOCKED: USER  
DOCKED: USER    Estimated Free Energy of Binding    =   +1.53 kcal/mol  [=(1)+(2)+(3)-(4)]
DOCKED: USER    
DOCKED: USER    (1) Final Intermolecular Energy     =   -5.63 kcal/mol
DOCKED: USER        vdW + Hbond + desolv Energy     =   -5.66 kcal/mol
DOCKED: USER        Electrostatic Energy            =   +0.02 kcal/mol
DOCKED: USER    (2) Final Total Internal Energy     =  -12.99 kcal/mol
DOCKED: USER    (3) Torsional Free Energy           =   +7.16 kcal/mol
DOCKED: USER    (4) Unbound System's Energy  [=(2)] =  -12.99 kcal/mol
DOCKED: USER    
DOCKED: USER    
DOCKED: USER    NEWDPF move IHP_ideal_opt.pdbqt
DOCKED: USER    NEWDPF about 0.035000 0.082000 -0.065000
DOCKED: USER    NEWDPF tran0 -9.845255 13.482164 -9.301411
DOCKED: USER    NEWDPF quaternion0 -0.480425 0.600070 0.588207 -0.251237
DOCKED: USER    NEWDPF axisangle0 -0.496345 0.619955 0.607699 -150.898563
DOCKED: USER    NEWDPF quat0 -0.496345 0.619955 0.607699 -150.898563
DOCKED: USER    NEWDPF dihe0 -179.77 -34.73 -179.23 74.01 -18.82 -165.70 -39.82 -17.51 179.70 119.50 158.15 132.47 108.68 107.43 6.61 32.87 -2.61 180.00 9.62 -31.53 166.73 -42.99 -39.67 30.25 
DOCKED: USER  keepresnum = 1 
DOCKED: USER  
DOCKED: REMARK  24 active torsions:
DOCKED: REMARK  status: ('A' for Active; 'I' for Inactive)
DOCKED: REMARK    1  A    between atoms: C_1  and  O_7 
DOCKED: REMARK    2  A    between atoms: C_2  and  O_12 
DOCKED: REMARK    3  A    between atoms: C_3  and  O_17 
DOCKED: REMARK    4  A    between atoms: C_4  and  O_22 
DOCKED: REMARK    5  A    between atoms: C_5  and  O_27 
DOCKED: REMARK    6  A    between atoms: C_6  and  O_32 
DOCKED: REMARK    7  A    between atoms: O_7  and  P_8 
DOCKED: REMARK    8  A    between atoms: P_8  and  O_10 
DOCKED: REMARK    9  A    between atoms: P_8  and  O_11 
DOCKED: REMARK   10  A    between atoms: O_12  and  P_13 
DOCKED: REMARK   11  A    between atoms: P_13  and  O_15 
DOCKED: REMARK   12  A    between atoms: P_13  and  O_16 
DOCKED: REMARK   13  A    between atoms: O_17  and  P_18 
DOCKED: REMARK   14  A    between atoms: P_18  and  O_20 
DOCKED: REMARK   15  A    between atoms: P_18  and  O_21 
DOCKED: REMARK   16  A    between atoms: O_22  and  P_23 
DOCKED: REMARK   17  A    between atoms: P_23  and  O_25 
DOCKED: REMARK   18  A    between atoms: P_23  and  O_26 
DOCKED: REMARK   19  A    between atoms: O_27  and  P_28 
DOCKED: REMARK   20  A    between atoms: P_28  and  O_30 
DOCKED: REMARK   21  A    between atoms: P_28  and  O_31 
DOCKED: REMARK   22  A    between atoms: O_32  and  P_33 
DOCKED: REMARK   23  A    between atoms: P_33  and  O_35 
DOCKED: REMARK   24  A    between atoms: P_33  and  O_36 
DOCKED: USER                              x       y       z     vdW  Elec       q    Type
DOCKED: USER                           _______ _______ _______ _____ _____    ______ ____
DOCKED: ROOT
DOCKED: ATOM      1  C   UNL d   1      -9.796  14.016 -10.944 -0.16 -0.04    +0.194 C 
DOCKED: ATOM      2  C   UNL d   1      -8.483  14.140 -10.168 -0.15 -0.01    +0.194 C 
DOCKED: ATOM      3  C   UNL d   1      -8.709  14.682  -8.755 -0.12 -0.00    +0.194 C 
DOCKED: ATOM      4  C   UNL d   1      -9.768  13.907  -7.976 -0.19 -0.01    +0.194 C 
DOCKED: ATOM      5  C   UNL d   1     -11.054  13.659  -8.754 -0.16 -0.02    +0.194 C 
DOCKED: ATOM      6  C   UNL d   1     -10.827  13.176 -10.188 -0.21 -0.04    +0.194 C 
DOCKED: ENDROOT
DOCKED: BRANCH   1   7
DOCKED: ATOM      7  O   UNL d   1      -9.523  13.347 -12.177 -0.13 +0.11    -0.278 OA
DOCKED: BRANCH   7   8
DOCKED: ATOM      8  P   UNL d   1      -9.680  14.170 -13.538 -0.05 -0.15    +0.473 P 
DOCKED: ATOM      9  O   UNL d   1      -8.965  13.595 -14.709 -0.51 +0.05    -0.228 OA
DOCKED: BRANCH   8  10
DOCKED: ATOM     10  O   UNL d   1     -11.258  14.267 -13.751 -0.09 +0.12    -0.303 OA
DOCKED: ATOM     11  H   UNL d   1     -11.712  14.148 -12.896 +0.01 -0.09    +0.222 HD
DOCKED: ENDBRANCH   8  10
DOCKED: BRANCH   8  12
DOCKED: ATOM     12  O   UNL d   1      -9.303  15.667 -13.161 -0.02 +0.04    -0.303 OA
DOCKED: ATOM     13  H   UNL d   1     -10.038  16.151 -12.721 +0.02 -0.03    +0.222 HD
DOCKED: ENDBRANCH   8  12
DOCKED: ENDBRANCH   7   8
DOCKED: ENDBRANCH   1   7
DOCKED: BRANCH   2  14
DOCKED: ATOM     14  O   UNL d   1      -7.874  12.847 -10.069 -0.23 +0.01    -0.278 OA
DOCKED: BRANCH  14  15
DOCKED: ATOM     15  P   UNL d   1      -6.689  12.532 -11.100 -0.18 -0.03    +0.473 P 
DOCKED: ATOM     16  O   UNL d   1      -5.797  11.378 -10.766 -0.19 -0.00    -0.228 OA
DOCKED: BRANCH  15  17
DOCKED: ATOM     17  O   UNL d   1      -7.429  12.356 -12.499 -0.18 +0.06    -0.303 OA
DOCKED: ATOM     18  H   UNL d   1      -7.567  13.219 -12.935 +0.06 -0.04    +0.222 HD
DOCKED: ENDBRANCH  15  17
DOCKED: BRANCH  15  19
DOCKED: ATOM     19  O   UNL d   1      -5.957  13.930 -11.299 -0.05 +0.01    -0.303 OA
DOCKED: ATOM     20  H   UNL d   1      -6.221  14.576 -10.619 +0.06 -0.01    +0.222 HD
DOCKED: ENDBRANCH  15  19
DOCKED: ENDBRANCH  14  15
DOCKED: ENDBRANCH   2  14
DOCKED: BRANCH   6  21
DOCKED: ATOM     21  O   UNL d   1     -12.068  13.322 -10.874 -0.16 +0.08    -0.278 OA
DOCKED: BRANCH  21  22
DOCKED: ATOM     22  P   UNL d   1     -12.685  14.776 -11.094 -0.02 -0.09    +0.473 P 
DOCKED: ATOM     23  O   UNL d   1     -11.750  15.904 -11.375 -0.02 +0.03    -0.228 OA
DOCKED: BRANCH  22  24
DOCKED: ATOM     24  O   UNL d   1     -13.763  14.504 -12.233 -0.02 +0.08    -0.303 OA
DOCKED: ATOM     25  H   UNL d   1     -13.303  14.546 -13.109 +0.04 -0.06    +0.222 HD
DOCKED: ENDBRANCH  22  24
DOCKED: BRANCH  22  26
DOCKED: ATOM     26  O   UNL d   1     -13.610  14.938  -9.794 -0.01 +0.05    -0.303 OA
DOCKED: ATOM     27  H   UNL d   1     -13.311  14.309  -9.107 +0.06 -0.03    +0.222 HD
DOCKED: ENDBRANCH  22  26
DOCKED: ENDBRANCH  21  22
DOCKED: ENDBRANCH   6  21
DOCKED: BRANCH   3  28
DOCKED: ATOM     28  O   UNL d   1      -7.499  14.503  -8.030 -0.16 -0.01    -0.278 OA
DOCKED: BRANCH  28  29
DOCKED: ATOM     29  P   UNL d   1      -6.197  15.333  -8.418 -0.11 +0.01    +0.473 P 
DOCKED: ATOM     30  O   UNL d   1      -6.392  16.385  -9.449 -0.03 +0.00    -0.228 OA
DOCKED: BRANCH  29  31
DOCKED: ATOM     31  O   UNL d   1      -5.731  15.817  -6.965 -0.06 -0.02    -0.303 OA
DOCKED: ATOM     32  H   UNL d   1      -6.245  15.319  -6.289 +0.07 +0.02    +0.222 HD
DOCKED: ENDBRANCH  29  31
DOCKED: BRANCH  29  33
DOCKED: ATOM     33  O   UNL d   1      -5.153  14.180  -8.756 -0.18 +0.01    -0.303 OA
DOCKED: ATOM     34  H   UNL d   1      -5.611  13.474  -9.274 +0.09 +0.00    +0.222 HD
DOCKED: ENDBRANCH  29  33
DOCKED: ENDBRANCH  28  29
DOCKED: ENDBRANCH   3  28
DOCKED: BRANCH   5  35
DOCKED: ATOM     35  O   UNL d   1     -11.730  12.613  -8.061 -0.19 +0.04    -0.278 OA
DOCKED: BRANCH  35  36
DOCKED: ATOM     36  P   UNL d   1     -12.778  12.957  -6.908 -0.23 -0.06    +0.473 P 
DOCKED: ATOM     37  O   UNL d   1     -13.696  14.104  -7.193 -0.15 +0.03    -0.228 OA
DOCKED: BRANCH  36  38
DOCKED: ATOM     38  O   UNL d   1     -13.517  11.561  -6.711 -0.75 +0.10    -0.303 OA
DOCKED: ATOM     39  H   UNL d   1     -13.255  11.178  -5.846 -0.42 -0.09    +0.222 HD
DOCKED: ENDBRANCH  36  38
DOCKED: BRANCH  36  40
DOCKED: ATOM     40  O   UNL d   1     -11.845  13.081  -5.626 -0.32 +0.01    -0.303 OA
DOCKED: ATOM     41  H   UNL d   1     -11.369  13.941  -5.603 +0.11 -0.01    +0.222 HD
DOCKED: ENDBRANCH  36  40
DOCKED: ENDBRANCH  35  36
DOCKED: ENDBRANCH   5  35
DOCKED: BRANCH   4  42
DOCKED: ATOM     42  O   UNL d   1     -10.112  14.704  -6.838 -0.09 +0.00    -0.278 OA
DOCKED: BRANCH  42  43
DOCKED: ATOM     43  P   UNL d   1      -9.161  14.671  -5.557 -0.18 +0.04    +0.473 P 
DOCKED: ATOM     44  O   UNL d   1      -9.810  14.533  -4.224 -0.26 -0.00    -0.228 OA
DOCKED: BRANCH  43  45
DOCKED: ATOM     45  O   UNL d   1      -8.142  13.500  -5.909 -0.26 -0.05    -0.303 OA
DOCKED: ATOM     46  H   UNL d   1      -7.396  13.826  -6.452 +0.09 +0.04    +0.222 HD
DOCKED: ENDBRANCH  43  45
DOCKED: BRANCH  43  47
DOCKED: ATOM     47  O   UNL d   1      -8.242  15.970  -5.749 -0.09 -0.04    -0.303 OA
DOCKED: ATOM     48  H   UNL d   1      -7.888  15.983  -6.662 +0.06 +0.02    +0.222 HD
DOCKED: ENDBRANCH  43  47
DOCKED: ENDBRANCH  42  43
DOCKED: ENDBRANCH   4  42
DOCKED: TORSDOF 24
DOCKED: TER
DOCKED: ENDMDL
________________________________________________________________________________


	BEGINNING GENETIC ALGORITHM DOCKING 25 of 100
Run: 25 Seed: 731460800 816482461 [ Run 25 of 100 GA/GALS ]
Beginning LAMARCKIAN GENETIC ALGORITHM (LGA), with a maximum of 25000000 energy evaluations.

Final-Value: -15.157


	FINAL GENETIC ALGORITHM DOCKED STATE
	_______________________________________________


Detailed state:  trans 16.521 -10.351 -20.463 quatxyzw 0.205781 0.294242 0.920400 0.154726 center 0.035 0.082 -0.065 ntor 24 74.7862 71.3110 162.6836 40.4893 86.5361 177.7686 153.5688 25.7933 93.6279 90.5240 123.0739 99.5790 148.0687 -161.1454 -18.6969 23.3209 50.3967 84.3537 -140.6621 -24.4029 168.0092 -40.1401 10.1111 -38.8040
State:	 16.521 -10.351 -20.463   0.208  0.298  0.932 162.198     74.79   71.31  162.68   40.49   86.54  177.77  153.57   25.79   93.63   90.52  123.07   99.58  148.07 -161.15  -18.70   23.32   50.40   84.35 -140.66  -24.40  168.01  -40.14   10.11  -38.80

DOCKED: MODEL       25
DOCKED: USER    Run = 25
DOCKED: USER    DPF = D:/Protein_go_brrr/autodock/final/mut_D99N/IHP/dock.dpf
DOCKED: USER  
DOCKED: USER    Estimated Free Energy of Binding    =   +4.30 kcal/mol  [=(1)+(2)+(3)-(4)]
DOCKED: USER    
DOCKED: USER    (1) Final Intermolecular Energy     =   -2.86 kcal/mol
DOCKED: USER        vdW + Hbond + desolv Energy     =   -2.57 kcal/mol
DOCKED: USER        Electrostatic Energy            =   -0.29 kcal/mol
DOCKED: USER    (2) Final Total Internal Energy     =  -12.29 kcal/mol
DOCKED: USER    (3) Torsional Free Energy           =   +7.16 kcal/mol
DOCKED: USER    (4) Unbound System's Energy  [=(2)] =  -12.29 kcal/mol
DOCKED: USER    
DOCKED: USER    
DOCKED: USER    NEWDPF move IHP_ideal_opt.pdbqt
DOCKED: USER    NEWDPF about 0.035000 0.082000 -0.065000
DOCKED: USER    NEWDPF tran0 16.521329 -10.351011 -20.463258
DOCKED: USER    NEWDPF quaternion0 0.205781 0.294242 0.920400 0.154726
DOCKED: USER    NEWDPF axisangle0 0.208290 0.297829 0.931619 162.198212
DOCKED: USER    NEWDPF quat0 0.208290 0.297829 0.931619 162.198212
DOCKED: USER    NEWDPF dihe0 74.79 71.31 162.68 40.49 86.54 177.77 153.57 25.79 93.63 90.52 123.07 99.58 148.07 -161.15 -18.70 23.32 50.40 84.35 -140.66 -24.40 168.01 -40.14 10.11 -38.80 
DOCKED: USER  keepresnum = 1 
DOCKED: USER  
DOCKED: REMARK  24 active torsions:
DOCKED: REMARK  status: ('A' for Active; 'I' for Inactive)
DOCKED: REMARK    1  A    between atoms: C_1  and  O_7 
DOCKED: REMARK    2  A    between atoms: C_2  and  O_12 
DOCKED: REMARK    3  A    between atoms: C_3  and  O_17 
DOCKED: REMARK    4  A    between atoms: C_4  and  O_22 
DOCKED: REMARK    5  A    between atoms: C_5  and  O_27 
DOCKED: REMARK    6  A    between atoms: C_6  and  O_32 
DOCKED: REMARK    7  A    between atoms: O_7  and  P_8 
DOCKED: REMARK    8  A    between atoms: P_8  and  O_10 
DOCKED: REMARK    9  A    between atoms: P_8  and  O_11 
DOCKED: REMARK   10  A    between atoms: O_12  and  P_13 
DOCKED: REMARK   11  A    between atoms: P_13  and  O_15 
DOCKED: REMARK   12  A    between atoms: P_13  and  O_16 
DOCKED: REMARK   13  A    between atoms: O_17  and  P_18 
DOCKED: REMARK   14  A    between atoms: P_18  and  O_20 
DOCKED: REMARK   15  A    between atoms: P_18  and  O_21 
DOCKED: REMARK   16  A    between atoms: O_22  and  P_23 
DOCKED: REMARK   17  A    between atoms: P_23  and  O_25 
DOCKED: REMARK   18  A    between atoms: P_23  and  O_26 
DOCKED: REMARK   19  A    between atoms: O_27  and  P_28 
DOCKED: REMARK   20  A    between atoms: P_28  and  O_30 
DOCKED: REMARK   21  A    between atoms: P_28  and  O_31 
DOCKED: REMARK   22  A    between atoms: O_32  and  P_33 
DOCKED: REMARK   23  A    between atoms: P_33  and  O_35 
DOCKED: REMARK   24  A    between atoms: P_33  and  O_36 
DOCKED: USER                              x       y       z     vdW  Elec       q    Type
DOCKED: USER                           _______ _______ _______ _____ _____    ______ ____
DOCKED: ROOT
DOCKED: ATOM      1  C   UNL d   1      15.302  -9.386 -19.712 -0.05 -0.04    +0.194 C 
DOCKED: ATOM      2  C   UNL d   1      15.952  -8.778 -20.956 -0.01 -0.02    +0.194 C 
DOCKED: ATOM      3  C   UNL d   1      17.469  -8.977 -20.957 +0.00 -0.02    +0.194 C 
DOCKED: ATOM      4  C   UNL d   1      17.886 -10.429 -20.739 +0.00 -0.02    +0.194 C 
DOCKED: ATOM      5  C   UNL d   1      17.175 -11.110 -19.576 -0.02 -0.05    +0.194 C 
DOCKED: ATOM      6  C   UNL d   1      15.666 -10.861 -19.541 -0.08 -0.08    +0.194 C 
DOCKED: ENDROOT
DOCKED: BRANCH   1   7
DOCKED: ATOM      7  O   UNL d   1      13.883  -9.313 -19.869 -0.08 +0.07    -0.278 OA
DOCKED: BRANCH   7   8
DOCKED: ATOM      8  P   UNL d   1      13.112 -10.601 -20.415 -0.08 -0.18    +0.473 P 
DOCKED: ATOM      9  O   UNL d   1      11.762 -10.336 -20.982 -0.14 +0.04    -0.228 OA
DOCKED: BRANCH   8  10
DOCKED: ATOM     10  O   UNL d   1      14.123 -11.237 -21.473 -0.03 +0.08    -0.303 OA
DOCKED: ATOM     11  H   UNL d   1      14.028 -10.782 -22.330 +0.02 -0.04    +0.222 HD
DOCKED: ENDBRANCH   8  10
DOCKED: BRANCH   8  12
DOCKED: ATOM     12  O   UNL d   1      13.171 -11.653 -19.225 -0.14 +0.38    -0.303 OA
DOCKED: ATOM     13  H   UNL d   1      13.257 -11.230 -18.341 -0.33 -0.41    +0.222 HD
DOCKED: ENDBRANCH   8  12
DOCKED: ENDBRANCH   7   8
DOCKED: ENDBRANCH   1   7
DOCKED: BRANCH   2  14
DOCKED: ATOM     14  O   UNL d   1      15.408  -9.410 -22.122 -0.00 +0.03    -0.278 OA
DOCKED: BRANCH  14  15
DOCKED: ATOM     15  P   UNL d   1      14.396  -8.536 -23.003 +0.00 -0.03    +0.473 P 
DOCKED: ATOM     16  O   UNL d   1      12.944  -8.886 -22.903 -0.01 +0.02    -0.228 OA
DOCKED: BRANCH  15  17
DOCKED: ATOM     17  O   UNL d   1      14.700  -7.034 -22.568 -0.00 +0.01    -0.303 OA
DOCKED: ATOM     18  H   UNL d   1      15.594  -6.761 -22.851 +0.00 -0.01    +0.222 HD
DOCKED: ENDBRANCH  15  17
DOCKED: BRANCH  15  19
DOCKED: ATOM     19  O   UNL d   1      15.011  -8.575 -24.470 -0.00 +0.01    -0.303 OA
DOCKED: ATOM     20  H   UNL d   1      15.953  -8.826 -24.459 +0.00 -0.01    +0.222 HD
DOCKED: ENDBRANCH  15  19
DOCKED: ENDBRANCH  14  15
DOCKED: ENDBRANCH   2  14
DOCKED: BRANCH   6  21
DOCKED: ATOM     21  O   UNL d   1      15.213 -11.256 -18.248 -0.17 +0.22    -0.278 OA
DOCKED: BRANCH  21  22
DOCKED: ATOM     22  P   UNL d   1      15.698 -10.451 -16.958 -0.12 -0.21    +0.473 P 
DOCKED: ATOM     23  O   UNL d   1      16.403  -9.153 -17.162 -0.05 +0.05    -0.228 OA
DOCKED: BRANCH  22  24
DOCKED: ATOM     24  O   UNL d   1      14.356 -10.356 -16.110 -0.72 +0.15    -0.303 OA
DOCKED: ATOM     25  H   UNL d   1      13.740 -11.065 -16.427 -0.37 -0.38    +0.222 HD
DOCKED: ENDBRANCH  22  24
DOCKED: BRANCH  22  26
DOCKED: ATOM     26  O   UNL d   1      16.515 -11.577 -16.161 -0.12 +0.11    -0.303 OA
DOCKED: ATOM     27  H   UNL d   1      16.540 -12.397 -16.695 +0.04 -0.11    +0.222 HD
DOCKED: ENDBRANCH  22  26
DOCKED: ENDBRANCH  21  22
DOCKED: ENDBRANCH   6  21
DOCKED: BRANCH   3  28
DOCKED: ATOM     28  O   UNL d   1      17.944  -8.639 -22.254 -0.00 +0.01    -0.278 OA
DOCKED: BRANCH  28  29
DOCKED: ATOM     29  P   UNL d   1      17.945  -7.122 -22.740 +0.00 -0.01    +0.473 P 
DOCKED: ATOM     30  O   UNL d   1      17.370  -6.142 -21.784 -0.00 +0.00    -0.228 OA
DOCKED: BRANCH  29  31
DOCKED: ATOM     31  O   UNL d   1      19.492  -6.950 -23.115 +0.00 +0.01    -0.303 OA
DOCKED: ATOM     32  H   UNL d   1      19.728  -5.996 -23.044 +0.00 -0.00    +0.222 HD
DOCKED: ENDBRANCH  29  31
DOCKED: BRANCH  29  33
DOCKED: ATOM     33  O   UNL d   1      17.247  -7.229 -24.168 +0.00 +0.01    -0.303 OA
DOCKED: ATOM     34  H   UNL d   1      16.266  -7.205 -24.048 +0.00 -0.01    +0.222 HD
DOCKED: ENDBRANCH  29  33
DOCKED: ENDBRANCH  28  29
DOCKED: ENDBRANCH   3  28
DOCKED: BRANCH   5  35
DOCKED: ATOM     35  O   UNL d   1      17.365 -12.510 -19.773 -0.01 +0.08    -0.278 OA
DOCKED: BRANCH  35  36
DOCKED: ATOM     36  P   UNL d   1      17.650 -13.466 -18.529 -0.03 -0.15    +0.473 P 
DOCKED: ATOM     37  O   UNL d   1      16.450 -14.141 -17.946 -0.12 +0.16    -0.228 OA
DOCKED: BRANCH  36  38
DOCKED: ATOM     38  O   UNL d   1      18.736 -14.465 -19.128 -0.00 +0.05    -0.303 OA
DOCKED: ATOM     39  H   UNL d   1      19.192 -14.031 -19.881 +0.01 -0.03    +0.222 HD
DOCKED: ENDBRANCH  36  38
DOCKED: BRANCH  36  40
DOCKED: ATOM     40  O   UNL d   1      18.490 -12.524 -17.561 -0.01 +0.06    -0.303 OA
DOCKED: ATOM     41  H   UNL d   1      18.059 -11.648 -17.442 +0.02 -0.05    +0.222 HD
DOCKED: ENDBRANCH  36  40
DOCKED: ENDBRANCH  35  36
DOCKED: ENDBRANCH   5  35
DOCKED: BRANCH   4  42
DOCKED: ATOM     42  O   UNL d   1      19.283 -10.417 -20.429 +0.00 +0.02    -0.278 OA
DOCKED: BRANCH  42  43
DOCKED: ATOM     43  P   UNL d   1      20.175 -11.674 -20.842 +0.00 -0.03    +0.473 P 
DOCKED: ATOM     44  O   UNL d   1      21.440 -11.405 -21.581 +0.00 +0.01    -0.228 OA
DOCKED: BRANCH  43  45
DOCKED: ATOM     45  O   UNL d   1      20.380 -12.427 -19.455 +0.00 +0.02    -0.303 OA
DOCKED: ATOM     46  H   UNL d   1      19.529 -12.558 -18.990 +0.01 -0.03    +0.222 HD
DOCKED: ENDBRANCH  43  45
DOCKED: BRANCH  43  47
DOCKED: ATOM     47  O   UNL d   1      19.131 -12.636 -21.584 +0.00 +0.03    -0.303 OA
DOCKED: ATOM     48  H   UNL d   1      18.624 -13.140 -20.914 +0.01 -0.03    +0.222 HD
DOCKED: ENDBRANCH  43  47
DOCKED: ENDBRANCH  42  43
DOCKED: ENDBRANCH   4  42
DOCKED: TORSDOF 24
DOCKED: TER
DOCKED: ENDMDL
________________________________________________________________________________


	BEGINNING GENETIC ALGORITHM DOCKING 26 of 100
Run: 26 Seed: 1483518797 875066628 [ Run 26 of 100 GA/GALS ]
Beginning LAMARCKIAN GENETIC ALGORITHM (LGA), with a maximum of 25000000 energy evaluations.

Final-Value: -18.351


	FINAL GENETIC ALGORITHM DOCKED STATE
	_______________________________________________


Detailed state:  trans 16.192 -11.192 -7.967 quatxyzw -0.331436 0.818740 -0.457720 -0.101526 center 0.035 0.082 -0.065 ntor 24 168.1959 -50.1717 -14.6697 -20.0075 107.5042 -168.9250 38.1012 -114.2659 70.4099 76.1929 96.5689 112.3674 106.1338 51.9669 15.5201 -126.1757 136.7165 -110.5623 10.0480 -30.7585 173.3788 11.0707 -21.0370 169.2013
State:	 16.192 -11.192  -7.967  -0.333  0.823 -0.460 -168.346    168.20  -50.17  -14.67  -20.01  107.50 -168.93   38.10 -114.27   70.41   76.19   96.57  112.37  106.13   51.97   15.52 -126.18  136.72 -110.56   10.05  -30.76  173.38   11.07  -21.04  169.20

DOCKED: MODEL       26
DOCKED: USER    Run = 26
DOCKED: USER    DPF = D:/Protein_go_brrr/autodock/final/mut_D99N/IHP/dock.dpf
DOCKED: USER  
DOCKED: USER    Estimated Free Energy of Binding    =   +1.68 kcal/mol  [=(1)+(2)+(3)-(4)]
DOCKED: USER    
DOCKED: USER    (1) Final Intermolecular Energy     =   -5.48 kcal/mol
DOCKED: USER        vdW + Hbond + desolv Energy     =   -5.33 kcal/mol
DOCKED: USER        Electrostatic Energy            =   -0.15 kcal/mol
DOCKED: USER    (2) Final Total Internal Energy     =  -12.87 kcal/mol
DOCKED: USER    (3) Torsional Free Energy           =   +7.16 kcal/mol
DOCKED: USER    (4) Unbound System's Energy  [=(2)] =  -12.87 kcal/mol
DOCKED: USER    
DOCKED: USER    
DOCKED: USER    NEWDPF move IHP_ideal_opt.pdbqt
DOCKED: USER    NEWDPF about 0.035000 0.082000 -0.065000
DOCKED: USER    NEWDPF tran0 16.192397 -11.191740 -7.966746
DOCKED: USER    NEWDPF quaternion0 -0.331436 0.818740 -0.457720 -0.101526
DOCKED: USER    NEWDPF axisangle0 -0.333158 0.822993 -0.460097 -168.345922
DOCKED: USER    NEWDPF quat0 -0.333158 0.822993 -0.460097 -168.345922
DOCKED: USER    NEWDPF dihe0 168.20 -50.17 -14.67 -20.01 107.50 -168.93 38.10 -114.27 70.41 76.19 96.57 112.37 106.13 51.97 15.52 -126.18 136.72 -110.56 10.05 -30.76 173.38 11.07 -21.04 169.20 
DOCKED: USER  keepresnum = 1 
DOCKED: USER  
DOCKED: REMARK  24 active torsions:
DOCKED: REMARK  status: ('A' for Active; 'I' for Inactive)
DOCKED: REMARK    1  A    between atoms: C_1  and  O_7 
DOCKED: REMARK    2  A    between atoms: C_2  and  O_12 
DOCKED: REMARK    3  A    between atoms: C_3  and  O_17 
DOCKED: REMARK    4  A    between atoms: C_4  and  O_22 
DOCKED: REMARK    5  A    between atoms: C_5  and  O_27 
DOCKED: REMARK    6  A    between atoms: C_6  and  O_32 
DOCKED: REMARK    7  A    between atoms: O_7  and  P_8 
DOCKED: REMARK    8  A    between atoms: P_8  and  O_10 
DOCKED: REMARK    9  A    between atoms: P_8  and  O_11 
DOCKED: REMARK   10  A    between atoms: O_12  and  P_13 
DOCKED: REMARK   11  A    between atoms: P_13  and  O_15 
DOCKED: REMARK   12  A    between atoms: P_13  and  O_16 
DOCKED: REMARK   13  A    between atoms: O_17  and  P_18 
DOCKED: REMARK   14  A    between atoms: P_18  and  O_20 
DOCKED: REMARK   15  A    between atoms: P_18  and  O_21 
DOCKED: REMARK   16  A    between atoms: O_22  and  P_23 
DOCKED: REMARK   17  A    between atoms: P_23  and  O_25 
DOCKED: REMARK   18  A    between atoms: P_23  and  O_26 
DOCKED: REMARK   19  A    between atoms: O_27  and  P_28 
DOCKED: REMARK   20  A    between atoms: P_28  and  O_30 
DOCKED: REMARK   21  A    between atoms: P_28  and  O_31 
DOCKED: REMARK   22  A    between atoms: O_32  and  P_33 
DOCKED: REMARK   23  A    between atoms: P_33  and  O_35 
DOCKED: REMARK   24  A    between atoms: P_33  and  O_36 
DOCKED: USER                              x       y       z     vdW  Elec       q    Type
DOCKED: USER                           _______ _______ _______ _____ _____    ______ ____
DOCKED: ROOT
DOCKED: ATOM      1  C   UNL d   1      16.011 -12.849  -7.513 -0.10 +0.00    +0.194 C 
DOCKED: ATOM      2  C   UNL d   1      17.148 -12.094  -6.821 -0.12 +0.01    +0.194 C 
DOCKED: ATOM      3  C   UNL d   1      17.925 -11.215  -7.803 -0.16 +0.02    +0.194 C 
DOCKED: ATOM      4  C   UNL d   1      17.029 -10.287  -8.619 -0.24 +0.02    +0.194 C 
DOCKED: ATOM      5  C   UNL d   1      15.818 -10.976  -9.234 -0.20 +0.00    +0.194 C 
DOCKED: ATOM      6  C   UNL d   1      15.076 -11.903  -8.268 -0.10 +0.00    +0.194 C 
DOCKED: ENDROOT
DOCKED: BRANCH   1   7
DOCKED: ATOM      7  O   UNL d   1      15.234 -13.504  -6.508 -0.08 -0.00    -0.278 OA
DOCKED: BRANCH   7   8
DOCKED: ATOM      8  P   UNL d   1      15.254 -15.101  -6.454 -0.01 +0.01    +0.473 P 
DOCKED: ATOM      9  O   UNL d   1      14.881 -15.692  -5.140 -0.04 -0.01    -0.228 OA
DOCKED: BRANCH   8  10
DOCKED: ATOM     10  O   UNL d   1      14.282 -15.540  -7.640 -0.07 +0.00    -0.303 OA
DOCKED: ATOM     11  H   UNL d   1      14.061 -14.763  -8.186 +0.07 -0.00    +0.222 HD
DOCKED: ENDBRANCH   8  10
DOCKED: BRANCH   8  12
DOCKED: ATOM     12  O   UNL d   1      16.679 -15.515  -7.021 -0.00 -0.00    -0.303 OA
DOCKED: ATOM     13  H   UNL d   1      16.665 -15.730  -7.981 +0.02 -0.00    +0.222 HD
DOCKED: ENDBRANCH   8  12
DOCKED: ENDBRANCH   7   8
DOCKED: ENDBRANCH   1   7
DOCKED: BRANCH   2  14
DOCKED: ATOM     14  O   UNL d   1      16.597 -11.257  -5.796 -0.18 -0.01    -0.278 OA
DOCKED: BRANCH  14  15
DOCKED: ATOM     15  P   UNL d   1      16.699 -11.802  -4.294 -0.16 -0.03    +0.473 P 
DOCKED: ATOM     16  O   UNL d   1      17.685 -11.120  -3.398 -0.23 +0.02    -0.228 OA
DOCKED: BRANCH  15  17
DOCKED: ATOM     17  O   UNL d   1      15.205 -11.715  -3.747 -0.22 +0.05    -0.303 OA
DOCKED: ATOM     18  H   UNL d   1      15.119 -11.018  -3.069 -0.40 -0.10    +0.222 HD
DOCKED: ENDBRANCH  15  17
DOCKED: BRANCH  15  19
DOCKED: ATOM     19  O   UNL d   1      16.890 -13.373  -4.454 -0.04 +0.00    -0.303 OA
DOCKED: ATOM     20  H   UNL d   1      16.043 -13.823  -4.630 +0.07 +0.00    +0.222 HD
DOCKED: ENDBRANCH  15  19
DOCKED: ENDBRANCH  14  15
DOCKED: ENDBRANCH   2  14
DOCKED: BRANCH   6  21
DOCKED: ATOM     21  O   UNL d   1      14.210 -12.715  -9.059 +0.05 +0.00    -0.278 OA
DOCKED: BRANCH  21  22
DOCKED: ATOM     22  P   UNL d   1      14.826 -13.850  -9.996 -0.12 -0.02    +0.473 P 
DOCKED: ATOM     23  O   UNL d   1      15.878 -14.741  -9.426 -0.04 +0.01    -0.228 OA
DOCKED: BRANCH  22  24
DOCKED: ATOM     24  O   UNL d   1      13.517 -14.600 -10.500 -0.27 +0.03    -0.303 OA
DOCKED: ATOM     25  H   UNL d   1      12.830 -13.917 -10.709 -0.47 -0.06    +0.222 HD
DOCKED: ENDBRANCH  22  24
DOCKED: BRANCH  22  26
DOCKED: ATOM     26  O   UNL d   1      15.246 -13.007 -11.294 -0.15 +0.02    -0.303 OA
DOCKED: ATOM     27  H   UNL d   1      15.274 -12.056 -11.065 +0.09 -0.01    +0.222 HD
DOCKED: ENDBRANCH  22  26
DOCKED: ENDBRANCH  21  22
DOCKED: ENDBRANCH   6  21
DOCKED: BRANCH   3  28
DOCKED: ATOM     28  O   UNL d   1      18.762 -10.356  -7.039 -0.73 -0.08    -0.278 OA
DOCKED: BRANCH  28  29
DOCKED: ATOM     29  P   UNL d   1      20.340 -10.371  -7.254 -0.10 +0.07    +0.473 P 
DOCKED: ATOM     30  O   UNL d   1      21.152  -9.985  -6.070 -0.11 -0.03    -0.228 OA
DOCKED: BRANCH  29  31
DOCKED: ATOM     31  O   UNL d   1      20.532 -11.859  -7.812 -0.02 -0.02    -0.303 OA
DOCKED: ATOM     32  H   UNL d   1      20.450 -11.839  -8.793 +0.02 +0.01    +0.222 HD
DOCKED: ENDBRANCH  29  31
DOCKED: BRANCH  29  33
DOCKED: ATOM     33  O   UNL d   1      20.508  -9.480  -8.563 -0.12 -0.04    -0.303 OA
DOCKED: ATOM     34  H   UNL d   1      19.947  -9.860  -9.283 +0.05 +0.02    +0.222 HD
DOCKED: ENDBRANCH  29  33
DOCKED: ENDBRANCH  28  29
DOCKED: ENDBRANCH   3  28
DOCKED: BRANCH   5  35
DOCKED: ATOM     35  O   UNL d   1      14.915  -9.930  -9.588 -0.27 -0.00    -0.278 OA
DOCKED: BRANCH  35  36
DOCKED: ATOM     36  P   UNL d   1      14.659  -9.574 -11.121 -0.24 -0.03    +0.473 P 
DOCKED: ATOM     37  O   UNL d   1      13.712  -8.443 -11.371 -0.40 +0.03    -0.228 OA
DOCKED: BRANCH  36  38
DOCKED: ATOM     38  O   UNL d   1      16.139  -9.317 -11.648 -0.12 +0.00    -0.303 OA
DOCKED: ATOM     39  H   UNL d   1      16.771  -9.451 -10.910 +0.09 +0.01    +0.222 HD
DOCKED: ENDBRANCH  36  38
DOCKED: BRANCH  36  40
DOCKED: ATOM     40  O   UNL d   1      14.272 -10.988 -11.738 -0.24 +0.03    -0.303 OA
DOCKED: ATOM     41  H   UNL d   1      13.769 -11.539 -11.099 +0.10 -0.04    +0.222 HD
DOCKED: ENDBRANCH  36  40
DOCKED: ENDBRANCH  35  36
DOCKED: ENDBRANCH   5  35
DOCKED: BRANCH   4  42
DOCKED: ATOM     42  O   UNL d   1      17.824  -9.788  -9.700 -0.09 -0.03    -0.278 OA
DOCKED: BRANCH  42  43
DOCKED: ATOM     43  P   UNL d   1      18.490 -10.827 -10.710 -0.05 +0.01    +0.473 P 
DOCKED: ATOM     44  O   UNL d   1      19.524 -11.750 -10.164 -0.03 -0.00    -0.228 OA
DOCKED: BRANCH  43  45
DOCKED: ATOM     45  O   UNL d   1      17.227 -11.564 -11.337 -0.04 +0.01    -0.303 OA
DOCKED: ATOM     46  H   UNL d   1      16.422 -11.011 -11.275 +0.08 -0.01    +0.222 HD
DOCKED: ENDBRANCH  43  45
DOCKED: BRANCH  43  47
DOCKED: ATOM     47  O   UNL d   1      18.964  -9.900 -11.929 -0.06 -0.00    -0.303 OA
DOCKED: ATOM     48  H   UNL d   1      18.177  -9.558 -12.400 +0.04 -0.00    +0.222 HD
DOCKED: ENDBRANCH  43  47
DOCKED: ENDBRANCH  42  43
DOCKED: ENDBRANCH   4  42
DOCKED: TORSDOF 24
DOCKED: TER
DOCKED: ENDMDL
________________________________________________________________________________


	BEGINNING GENETIC ALGORITHM DOCKING 27 of 100
Run: 27 Seed: 1255542499 1216157267 [ Run 27 of 100 GA/GALS ]
Beginning LAMARCKIAN GENETIC ALGORITHM (LGA), with a maximum of 25000000 energy evaluations.

Final-Value: -18.460


	FINAL GENETIC ALGORITHM DOCKED STATE
	_______________________________________________


Detailed state:  trans 17.315 -10.574 -8.685 quatxyzw -0.666832 -0.538788 0.141721 0.494933 center 0.035 0.082 -0.065 ntor 24 102.3624 24.0598 -158.6466 106.4472 6.8036 -119.6569 4.1613 -138.8970 110.8402 2.4110 1.1243 -178.4775 -179.9892 -22.9431 -51.7982 -122.2511 99.1778 -48.1180 27.5572 -25.8138 -177.9148 35.5579 -18.1417 -178.9653
State:	 17.315 -10.574  -8.685  -0.767 -0.620  0.163 120.669    102.36   24.06 -158.65  106.45    6.80 -119.66    4.16 -138.90  110.84    2.41    1.12 -178.48 -179.99  -22.94  -51.80 -122.25   99.18  -48.12   27.56  -25.81 -177.91   35.56  -18.14 -178.97

DOCKED: MODEL       27
DOCKED: USER    Run = 27
DOCKED: USER    DPF = D:/Protein_go_brrr/autodock/final/mut_D99N/IHP/dock.dpf
DOCKED: USER  
DOCKED: USER    Estimated Free Energy of Binding    =   +3.15 kcal/mol  [=(1)+(2)+(3)-(4)]
DOCKED: USER    
DOCKED: USER    (1) Final Intermolecular Energy     =   -4.01 kcal/mol
DOCKED: USER        vdW + Hbond + desolv Energy     =   -3.96 kcal/mol
DOCKED: USER        Electrostatic Energy            =   -0.05 kcal/mol
DOCKED: USER    (2) Final Total Internal Energy     =  -14.45 kcal/mol
DOCKED: USER    (3) Torsional Free Energy           =   +7.16 kcal/mol
DOCKED: USER    (4) Unbound System's Energy  [=(2)] =  -14.45 kcal/mol
DOCKED: USER    
DOCKED: USER    
DOCKED: USER    NEWDPF move IHP_ideal_opt.pdbqt
DOCKED: USER    NEWDPF about 0.035000 0.082000 -0.065000
DOCKED: USER    NEWDPF tran0 17.315495 -10.573751 -8.684911
DOCKED: USER    NEWDPF quaternion0 -0.666832 -0.538788 0.141721 0.494933
DOCKED: USER    NEWDPF axisangle0 -0.767416 -0.620058 0.163098 120.669391
DOCKED: USER    NEWDPF quat0 -0.767416 -0.620058 0.163098 120.669391
DOCKED: USER    NEWDPF dihe0 102.36 24.06 -158.65 106.45 6.80 -119.66 4.16 -138.90 110.84 2.41 1.12 -178.48 -179.99 -22.94 -51.80 -122.25 99.18 -48.12 27.56 -25.81 -177.91 35.56 -18.14 -178.97 
DOCKED: USER  keepresnum = 1 
DOCKED: USER  
DOCKED: REMARK  24 active torsions:
DOCKED: REMARK  status: ('A' for Active; 'I' for Inactive)
DOCKED: REMARK    1  A    between atoms: C_1  and  O_7 
DOCKED: REMARK    2  A    between atoms: C_2  and  O_12 
DOCKED: REMARK    3  A    between atoms: C_3  and  O_17 
DOCKED: REMARK    4  A    between atoms: C_4  and  O_22 
DOCKED: REMARK    5  A    between atoms: C_5  and  O_27 
DOCKED: REMARK    6  A    between atoms: C_6  and  O_32 
DOCKED: REMARK    7  A    between atoms: O_7  and  P_8 
DOCKED: REMARK    8  A    between atoms: P_8  and  O_10 
DOCKED: REMARK    9  A    between atoms: P_8  and  O_11 
DOCKED: REMARK   10  A    between atoms: O_12  and  P_13 
DOCKED: REMARK   11  A    between atoms: P_13  and  O_15 
DOCKED: REMARK   12  A    between atoms: P_13  and  O_16 
DOCKED: REMARK   13  A    between atoms: O_17  and  P_18 
DOCKED: REMARK   14  A    between atoms: P_18  and  O_20 
DOCKED: REMARK   15  A    between atoms: P_18  and  O_21 
DOCKED: REMARK   16  A    between atoms: O_22  and  P_23 
DOCKED: REMARK   17  A    between atoms: P_23  and  O_25 
DOCKED: REMARK   18  A    between atoms: P_23  and  O_26 
DOCKED: REMARK   19  A    between atoms: O_27  and  P_28 
DOCKED: REMARK   20  A    between atoms: P_28  and  O_30 
DOCKED: REMARK   21  A    between atoms: P_28  and  O_31 
DOCKED: REMARK   22  A    between atoms: O_32  and  P_33 
DOCKED: REMARK   23  A    between atoms: P_33  and  O_35 
DOCKED: REMARK   24  A    between atoms: P_33  and  O_36 
DOCKED: USER                              x       y       z     vdW  Elec       q    Type
DOCKED: USER                           _______ _______ _______ _____ _____    ______ ____
DOCKED: ROOT
DOCKED: ATOM      1  C   UNL d   1      17.300 -10.555 -10.412 -0.12 +0.01    +0.194 C 
DOCKED: ATOM      2  C   UNL d   1      16.010 -11.033  -9.745 -0.18 +0.00    +0.194 C 
DOCKED: ATOM      3  C   UNL d   1      16.293 -11.978  -8.576 -0.12 +0.00    +0.194 C 
DOCKED: ATOM      4  C   UNL d   1      17.286 -11.406  -7.567 -0.16 +0.02    +0.194 C 
DOCKED: ATOM      5  C   UNL d   1      18.539 -10.813  -8.198 -0.16 +0.02    +0.194 C 
DOCKED: ATOM      6  C   UNL d   1      18.259  -9.917  -9.406 -0.11 +0.02    +0.194 C 
DOCKED: ENDROOT
DOCKED: BRANCH   1   7
DOCKED: ATOM      7  O   UNL d   1      16.961  -9.552 -11.372 -0.10 -0.01    -0.278 OA
DOCKED: BRANCH   7   8
DOCKED: ATOM      8  P   UNL d   1      16.757  -9.995 -12.894 -0.06 -0.03    +0.473 P 
DOCKED: ATOM      9  O   UNL d   1      17.536  -9.209 -13.889 -0.05 +0.02    -0.228 OA
DOCKED: BRANCH   8  10
DOCKED: ATOM     10  O   UNL d   1      17.122 -11.548 -12.896 -0.06 +0.02    -0.303 OA
DOCKED: ATOM     11  H   UNL d   1      18.018 -11.674 -12.532 +0.04 -0.01    +0.222 HD
DOCKED: ENDBRANCH   8  10
DOCKED: BRANCH   8  12
DOCKED: ATOM     12  O   UNL d   1      15.183 -10.023 -13.109 -0.18 +0.04    -0.303 OA
DOCKED: ATOM     13  H   UNL d   1      14.681 -10.104 -12.267 +0.12 -0.02    +0.222 HD
DOCKED: ENDBRANCH   8  12
DOCKED: ENDBRANCH   7   8
DOCKED: ENDBRANCH   1   7
DOCKED: BRANCH   2  14
DOCKED: ATOM     14  O   UNL d   1      15.291  -9.897  -9.250 -0.27 -0.01    -0.278 OA
DOCKED: BRANCH  14  15
DOCKED: ATOM     15  P   UNL d   1      13.990  -9.458 -10.074 -0.24 -0.02    +0.473 P 
DOCKED: ATOM     16  O   UNL d   1      13.214 -10.552 -10.738 -0.26 +0.03    -0.228 OA
DOCKED: BRANCH  15  17
DOCKED: ATOM     17  O   UNL d   1      13.122  -8.637  -9.020 -0.39 +0.02    -0.303 OA
DOCKED: ATOM     18  H   UNL d   1      13.163  -7.678  -9.202 -0.09 -0.06    +0.222 HD
DOCKED: ENDBRANCH  15  17
DOCKED: BRANCH  15  19
DOCKED: ATOM     19  O   UNL d   1      14.502  -8.300 -11.037 -0.27 +0.03    -0.303 OA
DOCKED: ATOM     20  H   UNL d   1      15.333  -8.544 -11.485 +0.12 -0.01    +0.222 HD
DOCKED: ENDBRANCH  15  19
DOCKED: ENDBRANCH  14  15
DOCKED: ENDBRANCH   2  14
DOCKED: BRANCH   6  21
DOCKED: ATOM     21  O   UNL d   1      19.504  -9.728 -10.076 -0.10 -0.03    -0.278 OA
DOCKED: BRANCH  21  22
DOCKED: ATOM     22  P   UNL d   1      20.064 -10.868 -11.042 -0.03 +0.01    +0.473 P 
DOCKED: ATOM     23  O   UNL d   1      19.560 -12.259 -10.856 -0.01 -0.00    -0.228 OA
DOCKED: BRANCH  22  24
DOCKED: ATOM     24  O   UNL d   1      19.784 -10.244 -12.479 -0.02 +0.00    -0.303 OA
DOCKED: ATOM     25  H   UNL d   1      18.810 -10.083 -12.561 +0.03 -0.00    +0.222 HD
DOCKED: ENDBRANCH  22  24
DOCKED: BRANCH  22  26
DOCKED: ATOM     26  O   UNL d   1      21.648 -10.668 -10.897 -0.01 -0.01    -0.303 OA
DOCKED: ATOM     27  H   UNL d   1      21.918 -10.891  -9.983 +0.01 +0.01    +0.222 HD
DOCKED: ENDBRANCH  22  26
DOCKED: ENDBRANCH  21  22
DOCKED: ENDBRANCH   6  21
DOCKED: BRANCH   3  28
DOCKED: ATOM     28  O   UNL d   1      15.078 -12.145  -7.856 -0.14 -0.01    -0.278 OA
DOCKED: BRANCH  28  29
DOCKED: ATOM     29  P   UNL d   1      14.742 -13.536  -7.156 -0.06 +0.01    +0.473 P 
DOCKED: ATOM     30  O   UNL d   1      13.300 -13.887  -7.090 -0.15 -0.01    -0.228 OA
DOCKED: BRANCH  29  31
DOCKED: ATOM     31  O   UNL d   1      15.688 -14.510  -8.003 -0.03 +0.00    -0.303 OA
DOCKED: ATOM     32  H   UNL d   1      16.613 -14.176  -7.946 +0.04 +0.00    +0.222 HD
DOCKED: ENDBRANCH  29  31
DOCKED: BRANCH  29  33
DOCKED: ATOM     33  O   UNL d   1      15.516 -13.409  -5.771 -0.05 -0.00    -0.303 OA
DOCKED: ATOM     34  H   UNL d   1      16.473 -13.606  -5.919 +0.05 +0.00    +0.222 HD
DOCKED: ENDBRANCH  29  33
DOCKED: ENDBRANCH  28  29
DOCKED: ENDBRANCH   3  28
DOCKED: BRANCH   5  35
DOCKED: ATOM     35  O   UNL d   1      19.127  -9.990  -7.192 -0.71 -0.09    -0.278 OA
DOCKED: BRANCH  35  36
DOCKED: ATOM     36  P   UNL d   1      20.526 -10.392  -6.540 -0.05 +0.07    +0.473 P 
DOCKED: ATOM     37  O   UNL d   1      21.437  -9.252  -6.215 -0.13 -0.03    -0.228 OA
DOCKED: BRANCH  36  38
DOCKED: ATOM     38  O   UNL d   1      20.064 -11.242  -5.275 -0.08 -0.03    -0.303 OA
DOCKED: ATOM     39  H   UNL d   1      19.310 -11.815  -5.531 +0.06 +0.02    +0.222 HD
DOCKED: ENDBRANCH  36  38
DOCKED: BRANCH  36  40
DOCKED: ATOM     40  O   UNL d   1      21.073 -11.486  -7.557 -0.02 -0.02    -0.303 OA
DOCKED: ATOM     41  H   UNL d   1      20.355 -12.075  -7.879 +0.02 +0.01    +0.222 HD
DOCKED: ENDBRANCH  36  40
DOCKED: ENDBRANCH  35  36
DOCKED: ENDBRANCH   5  35
DOCKED: BRANCH   4  42
DOCKED: ATOM     42  O   UNL d   1      17.707 -12.494  -6.737 -0.05 -0.01    -0.278 OA
DOCKED: BRANCH  42  43
DOCKED: ATOM     43  P   UNL d   1      18.636 -13.628  -7.365 -0.00 +0.01    +0.473 P 
DOCKED: ATOM     44  O   UNL d   1      18.973 -13.518  -8.811 -0.01 -0.00    -0.228 OA
DOCKED: BRANCH  43  45
DOCKED: ATOM     45  O   UNL d   1      19.901 -13.617  -6.399 -0.01 -0.01    -0.303 OA
DOCKED: ATOM     46  H   UNL d   1      20.448 -12.817  -6.535 +0.02 +0.01    +0.222 HD
DOCKED: ENDBRANCH  43  45
DOCKED: BRANCH  43  47
DOCKED: ATOM     47  O   UNL d   1      17.904 -14.985  -6.927 -0.00 -0.00    -0.303 OA
DOCKED: ATOM     48  H   UNL d   1      17.100 -14.766  -6.412 +0.02 +0.00    +0.222 HD
DOCKED: ENDBRANCH  43  47
DOCKED: ENDBRANCH  42  43
DOCKED: ENDBRANCH   4  42
DOCKED: TORSDOF 24
DOCKED: TER
DOCKED: ENDMDL
________________________________________________________________________________


	BEGINNING GENETIC ALGORITHM DOCKING 28 of 100
Run: 28 Seed: 546951688 1945500145 [ Run 28 of 100 GA/GALS ]
Beginning LAMARCKIAN GENETIC ALGORITHM (LGA), with a maximum of 25000000 energy evaluations.

Final-Value: -17.358


	FINAL GENETIC ALGORITHM DOCKED STATE
	_______________________________________________


Detailed state:  trans -15.365 5.259 -17.436 quatxyzw -0.406901 0.084170 -0.808505 -0.416732 center 0.035 0.082 -0.065 ntor 24 88.8008 -142.1397 49.0679 110.3073 169.1425 105.0343 -98.5654 43.5801 32.6653 93.6608 85.2046 -111.6129 -55.6249 -48.3130 -167.5455 19.6469 -18.6930 57.4311 47.5556 -13.4463 28.0245 -42.2238 -47.8756 27.1995
State:	-15.365   5.259 -17.436  -0.448  0.093 -0.889 -130.743     88.80 -142.14   49.07  110.31  169.14  105.03  -98.57   43.58   32.67   93.66   85.20 -111.61  -55.62  -48.31 -167.55   19.65  -18.69   57.43   47.56  -13.45   28.02  -42.22  -47.88   27.20

DOCKED: MODEL       28
DOCKED: USER    Run = 28
DOCKED: USER    DPF = D:/Protein_go_brrr/autodock/final/mut_D99N/IHP/dock.dpf
DOCKED: USER  
DOCKED: USER    Estimated Free Energy of Binding    =   +3.06 kcal/mol  [=(1)+(2)+(3)-(4)]
DOCKED: USER    
DOCKED: USER    (1) Final Intermolecular Energy     =   -4.10 kcal/mol
DOCKED: USER        vdW + Hbond + desolv Energy     =   -3.46 kcal/mol
DOCKED: USER        Electrostatic Energy            =   -0.64 kcal/mol
DOCKED: USER    (2) Final Total Internal Energy     =  -13.26 kcal/mol
DOCKED: USER    (3) Torsional Free Energy           =   +7.16 kcal/mol
DOCKED: USER    (4) Unbound System's Energy  [=(2)] =  -13.26 kcal/mol
DOCKED: USER    
DOCKED: USER    
DOCKED: USER    NEWDPF move IHP_ideal_opt.pdbqt
DOCKED: USER    NEWDPF about 0.035000 0.082000 -0.065000
DOCKED: USER    NEWDPF tran0 -15.365203 5.258683 -17.436254
DOCKED: USER    NEWDPF quaternion0 -0.406901 0.084170 -0.808505 -0.416732
DOCKED: USER    NEWDPF axisangle0 -0.447622 0.092593 -0.889416 -130.743071
DOCKED: USER    NEWDPF quat0 -0.447622 0.092593 -0.889416 -130.743071
DOCKED: USER    NEWDPF dihe0 88.80 -142.14 49.07 110.31 169.14 105.03 -98.57 43.58 32.67 93.66 85.20 -111.61 -55.62 -48.31 -167.55 19.65 -18.69 57.43 47.56 -13.45 28.02 -42.22 -47.88 27.20 
DOCKED: USER  keepresnum = 1 
DOCKED: USER  
DOCKED: REMARK  24 active torsions:
DOCKED: REMARK  status: ('A' for Active; 'I' for Inactive)
DOCKED: REMARK    1  A    between atoms: C_1  and  O_7 
DOCKED: REMARK    2  A    between atoms: C_2  and  O_12 
DOCKED: REMARK    3  A    between atoms: C_3  and  O_17 
DOCKED: REMARK    4  A    between atoms: C_4  and  O_22 
DOCKED: REMARK    5  A    between atoms: C_5  and  O_27 
DOCKED: REMARK    6  A    between atoms: C_6  and  O_32 
DOCKED: REMARK    7  A    between atoms: O_7  and  P_8 
DOCKED: REMARK    8  A    between atoms: P_8  and  O_10 
DOCKED: REMARK    9  A    between atoms: P_8  and  O_11 
DOCKED: REMARK   10  A    between atoms: O_12  and  P_13 
DOCKED: REMARK   11  A    between atoms: P_13  and  O_15 
DOCKED: REMARK   12  A    between atoms: P_13  and  O_16 
DOCKED: REMARK   13  A    between atoms: O_17  and  P_18 
DOCKED: REMARK   14  A    between atoms: P_18  and  O_20 
DOCKED: REMARK   15  A    between atoms: P_18  and  O_21 
DOCKED: REMARK   16  A    between atoms: O_22  and  P_23 
DOCKED: REMARK   17  A    between atoms: P_23  and  O_25 
DOCKED: REMARK   18  A    between atoms: P_23  and  O_26 
DOCKED: REMARK   19  A    between atoms: O_27  and  P_28 
DOCKED: REMARK   20  A    between atoms: P_28  and  O_30 
DOCKED: REMARK   21  A    between atoms: P_28  and  O_31 
DOCKED: REMARK   22  A    between atoms: O_32  and  P_33 
DOCKED: REMARK   23  A    between atoms: P_33  and  O_35 
DOCKED: REMARK   24  A    between atoms: P_33  and  O_36 
DOCKED: USER                              x       y       z     vdW  Elec       q    Type
DOCKED: USER                           _______ _______ _______ _____ _____    ______ ____
DOCKED: ROOT
DOCKED: ATOM      1  C   UNL d   1     -15.730   5.056 -15.760 -0.13 +0.04    +0.194 C 
DOCKED: ATOM      2  C   UNL d   1     -16.084   6.421 -16.353 -0.08 -0.06    +0.194 C 
DOCKED: ATOM      3  C   UNL d   1     -14.975   6.947 -17.267 -0.03 -0.17    +0.194 C 
DOCKED: ATOM      4  C   UNL d   1     -14.552   5.944 -18.338 -0.06 -0.08    +0.194 C 
DOCKED: ATOM      5  C   UNL d   1     -14.300   4.539 -17.807 -0.09 -0.01    +0.194 C 
DOCKED: ATOM      6  C   UNL d   1     -15.378   4.037 -16.844 -0.10 +0.07    +0.194 C 
DOCKED: ENDROOT
DOCKED: BRANCH   1   7
DOCKED: ATOM      7  O   UNL d   1     -16.877   4.560 -15.065 -0.34 -0.18    -0.278 OA
DOCKED: BRANCH   7   8
DOCKED: ATOM      8  P   UNL d   1     -17.243   5.203 -13.649 -0.06 +0.05    +0.473 P 
DOCKED: ATOM      9  O   UNL d   1     -16.274   6.215 -13.146 -0.24 +0.07    -0.228 OA
DOCKED: BRANCH   8  10
DOCKED: ATOM     10  O   UNL d   1     -18.712   5.790 -13.859 -0.03 +0.05    -0.303 OA
DOCKED: ATOM     11  H   UNL d   1     -18.675   6.552 -14.466 +0.04 -0.04    +0.222 HD
DOCKED: ENDBRANCH   8  10
DOCKED: BRANCH   8  12
DOCKED: ATOM     12  O   UNL d   1     -17.513   3.965 -12.691 -0.52 -0.09    -0.303 OA
DOCKED: ATOM     13  H   UNL d   1     -17.639   4.225 -11.751 +0.03 -0.10    +0.222 HD
DOCKED: ENDBRANCH   8  12
DOCKED: ENDBRANCH   7   8
DOCKED: ENDBRANCH   1   7
DOCKED: BRANCH   2  14
DOCKED: ATOM     14  O   UNL d   1     -17.288   6.298 -17.120 -0.01 +0.04    -0.278 OA
DOCKED: BRANCH  14  15
DOCKED: ATOM     15  P   UNL d   1     -18.542   7.164 -16.628 +0.02 -0.08    +0.473 P 
DOCKED: ATOM     16  O   UNL d   1     -18.292   8.139 -15.520 -0.01 +0.06    -0.228 OA
DOCKED: BRANCH  15  17
DOCKED: ATOM     17  O   UNL d   1     -19.076   7.862 -17.956 +0.00 +0.04    -0.303 OA
DOCKED: ATOM     18  H   UNL d   1     -18.342   8.254 -18.468 +0.01 -0.04    +0.222 HD
DOCKED: ENDBRANCH  15  17
DOCKED: BRANCH  15  19
DOCKED: ATOM     19  O   UNL d   1     -19.682   6.090 -16.351 +0.00 +0.02    -0.303 OA
DOCKED: ATOM     20  H   UNL d   1     -19.363   5.364 -15.783 +0.02 -0.00    +0.222 HD
DOCKED: ENDBRANCH  15  19
DOCKED: ENDBRANCH  14  15
DOCKED: ENDBRANCH   2  14
DOCKED: BRANCH   6  21
DOCKED: ATOM     21  O   UNL d   1     -14.842   2.892 -16.185 -0.33 -0.28    -0.278 OA
DOCKED: BRANCH  21  22
DOCKED: ATOM     22  P   UNL d   1     -14.718   1.510 -16.972 -0.08 +0.30    +0.473 P 
DOCKED: ATOM     23  O   UNL d   1     -15.104   0.257 -16.261 -0.12 -0.19    -0.228 OA
DOCKED: BRANCH  22  24
DOCKED: ATOM     24  O   UNL d   1     -15.553   1.812 -18.293 -0.02 -0.09    -0.303 OA
DOCKED: ATOM     25  H   UNL d   1     -14.913   1.977 -19.031 +0.02 +0.04    +0.222 HD
DOCKED: ENDBRANCH  22  24
DOCKED: BRANCH  22  26
DOCKED: ATOM     26  O   UNL d   1     -13.210   1.576 -17.511 -0.30 -0.13    -0.303 OA
DOCKED: ATOM     27  H   UNL d   1     -13.144   2.271 -18.197 +0.04 +0.06    +0.222 HD
DOCKED: ENDBRANCH  22  26
DOCKED: ENDBRANCH  21  22
DOCKED: ENDBRANCH   6  21
DOCKED: BRANCH   3  28
DOCKED: ATOM     28  O   UNL d   1     -15.498   8.061 -17.978 -0.08 +0.22    -0.278 OA
DOCKED: BRANCH  28  29
DOCKED: ATOM     29  P   UNL d   1     -15.841   9.415 -17.214 -0.04 -0.42    +0.473 P 
DOCKED: ATOM     30  O   UNL d   1     -15.716   9.365 -15.734 -0.13 +0.22    -0.228 OA
DOCKED: BRANCH  29  31
DOCKED: ATOM     31  O   UNL d   1     -14.875  10.427 -17.991 -0.04 +0.42    -0.303 OA
DOCKED: ATOM     32  H   UNL d   1     -13.981  10.018 -18.059 -0.53 -0.60    +0.222 HD
DOCKED: ENDBRANCH  29  31
DOCKED: BRANCH  29  33
DOCKED: ATOM     33  O   UNL d   1     -17.276   9.777 -17.802 -0.01 +0.12    -0.303 OA
DOCKED: ATOM     34  H   UNL d   1     -17.966   9.540 -17.135 +0.01 -0.07    +0.222 HD
DOCKED: ENDBRANCH  29  33
DOCKED: ENDBRANCH  28  29
DOCKED: ENDBRANCH   3  28
DOCKED: BRANCH   5  35
DOCKED: ATOM     35  O   UNL d   1     -14.325   3.684 -18.948 -0.02 -0.02    -0.278 OA
DOCKED: BRANCH  35  36
DOCKED: ATOM     36  P   UNL d   1     -13.026   3.519 -19.859 -0.01 +0.04    +0.473 P 
DOCKED: ATOM     37  O   UNL d   1     -11.721   3.775 -19.173 -0.07 -0.03    -0.228 OA
DOCKED: BRANCH  36  38
DOCKED: ATOM     38  O   UNL d   1     -13.197   2.033 -20.406 -0.02 -0.05    -0.303 OA
DOCKED: ATOM     39  H   UNL d   1     -13.575   1.471 -19.695 +0.03 +0.04    +0.222 HD
DOCKED: ENDBRANCH  36  38
DOCKED: BRANCH  36  40
DOCKED: ATOM     40  O   UNL d   1     -13.373   4.431 -21.114 +0.00 +0.00    -0.303 OA
DOCKED: ATOM     41  H   UNL d   1     -13.646   5.336 -20.843 +0.02 -0.02    +0.222 HD
DOCKED: ENDBRANCH  36  40
DOCKED: ENDBRANCH  35  36
DOCKED: ENDBRANCH   5  35
DOCKED: BRANCH   4  42
DOCKED: ATOM     42  O   UNL d   1     -13.316   6.417 -18.883 -0.08 +0.17    -0.278 OA
DOCKED: BRANCH  42  43
DOCKED: ATOM     43  P   UNL d   1     -13.353   7.513 -20.041 -0.04 -0.25    +0.473 P 
DOCKED: ATOM     44  O   UNL d   1     -13.035   8.919 -19.665 -0.11 +0.24    -0.228 OA
DOCKED: BRANCH  43  45
DOCKED: ATOM     45  O   UNL d   1     -12.378   6.896 -21.137 -0.01 +0.06    -0.303 OA
DOCKED: ATOM     46  H   UNL d   1     -12.164   5.962 -20.941 +0.03 -0.03    +0.222 HD
DOCKED: ENDBRANCH  43  45
DOCKED: BRANCH  43  47
DOCKED: ATOM     47  O   UNL d   1     -14.789   7.285 -20.716 -0.01 +0.08    -0.303 OA
DOCKED: ATOM     48  H   UNL d   1     -15.488   7.538 -20.078 +0.01 -0.07    +0.222 HD
DOCKED: ENDBRANCH  43  47
DOCKED: ENDBRANCH  42  43
DOCKED: ENDBRANCH   4  42
DOCKED: TORSDOF 24
DOCKED: TER
DOCKED: ENDMDL
________________________________________________________________________________


	BEGINNING GENETIC ALGORITHM DOCKING 29 of 100
Run: 29 Seed: 1400502548 1476231919 [ Run 29 of 100 GA/GALS ]
Beginning LAMARCKIAN GENETIC ALGORITHM (LGA), with a maximum of 25000000 energy evaluations.

Final-Value: -18.745


	FINAL GENETIC ALGORITHM DOCKED STATE
	_______________________________________________


Detailed state:  trans -10.842 -7.790 -1.769 quatxyzw -0.408243 -0.665627 0.150684 0.606278 center 0.035 0.082 -0.065 ntor 24 104.6824 10.5322 103.4849 85.2296 179.9595 116.8826 -21.4721 -84.0098 157.9770 13.4308 135.8787 116.6747 -28.6639 114.0755 66.4946 -66.9983 -180.0000 -158.4049 7.9857 -14.9558 -27.6160 2.7751 176.9725 9.2366
State:	-10.842  -7.790  -1.769  -0.513 -0.837  0.189 105.358    104.68   10.53  103.48   85.23  179.96  116.88  -21.47  -84.01  157.98   13.43  135.88  116.67  -28.66  114.08   66.49  -67.00 -180.00 -158.40    7.99  -14.96  -27.62    2.78  176.97    9.24

DOCKED: MODEL       29
DOCKED: USER    Run = 29
DOCKED: USER    DPF = D:/Protein_go_brrr/autodock/final/mut_D99N/IHP/dock.dpf
DOCKED: USER  
DOCKED: USER    Estimated Free Energy of Binding    =   +2.89 kcal/mol  [=(1)+(2)+(3)-(4)]
DOCKED: USER    
DOCKED: USER    (1) Final Intermolecular Energy     =   -4.27 kcal/mol
DOCKED: USER        vdW + Hbond + desolv Energy     =   -3.68 kcal/mol
DOCKED: USER        Electrostatic Energy            =   -0.59 kcal/mol
DOCKED: USER    (2) Final Total Internal Energy     =  -14.47 kcal/mol
DOCKED: USER    (3) Torsional Free Energy           =   +7.16 kcal/mol
DOCKED: USER    (4) Unbound System's Energy  [=(2)] =  -14.47 kcal/mol
DOCKED: USER    
DOCKED: USER    
DOCKED: USER    NEWDPF move IHP_ideal_opt.pdbqt
DOCKED: USER    NEWDPF about 0.035000 0.082000 -0.065000
DOCKED: USER    NEWDPF tran0 -10.842487 -7.789684 -1.769390
DOCKED: USER    NEWDPF quaternion0 -0.408243 -0.665627 0.150684 0.606278
DOCKED: USER    NEWDPF axisangle0 -0.513349 -0.837001 0.189479 105.358348
DOCKED: USER    NEWDPF quat0 -0.513349 -0.837001 0.189479 105.358348
DOCKED: USER    NEWDPF dihe0 104.68 10.53 103.48 85.23 179.96 116.88 -21.47 -84.01 157.98 13.43 135.88 116.67 -28.66 114.08 66.49 -67.00 -180.00 -158.40 7.99 -14.96 -27.62 2.78 176.97 9.24 
DOCKED: USER  keepresnum = 1 
DOCKED: USER  
DOCKED: REMARK  24 active torsions:
DOCKED: REMARK  status: ('A' for Active; 'I' for Inactive)
DOCKED: REMARK    1  A    between atoms: C_1  and  O_7 
DOCKED: REMARK    2  A    between atoms: C_2  and  O_12 
DOCKED: REMARK    3  A    between atoms: C_3  and  O_17 
DOCKED: REMARK    4  A    between atoms: C_4  and  O_22 
DOCKED: REMARK    5  A    between atoms: C_5  and  O_27 
DOCKED: REMARK    6  A    between atoms: C_6  and  O_32 
DOCKED: REMARK    7  A    between atoms: O_7  and  P_8 
DOCKED: REMARK    8  A    between atoms: P_8  and  O_10 
DOCKED: REMARK    9  A    between atoms: P_8  and  O_11 
DOCKED: REMARK   10  A    between atoms: O_12  and  P_13 
DOCKED: REMARK   11  A    between atoms: P_13  and  O_15 
DOCKED: REMARK   12  A    between atoms: P_13  and  O_16 
DOCKED: REMARK   13  A    between atoms: O_17  and  P_18 
DOCKED: REMARK   14  A    between atoms: P_18  and  O_20 
DOCKED: REMARK   15  A    between atoms: P_18  and  O_21 
DOCKED: REMARK   16  A    between atoms: O_22  and  P_23 
DOCKED: REMARK   17  A    between atoms: P_23  and  O_25 
DOCKED: REMARK   18  A    between atoms: P_23  and  O_26 
DOCKED: REMARK   19  A    between atoms: O_27  and  P_28 
DOCKED: REMARK   20  A    between atoms: P_28  and  O_30 
DOCKED: REMARK   21  A    between atoms: P_28  and  O_31 
DOCKED: REMARK   22  A    between atoms: O_32  and  P_33 
DOCKED: REMARK   23  A    between atoms: P_33  and  O_35 
DOCKED: REMARK   24  A    between atoms: P_33  and  O_36 
DOCKED: USER                              x       y       z     vdW  Elec       q    Type
DOCKED: USER                           _______ _______ _______ _____ _____    ______ ____
DOCKED: ROOT
DOCKED: ATOM      1  C   UNL d   1     -10.860  -8.440  -3.370 +0.00 -0.17    +0.194 C 
DOCKED: ATOM      2  C   UNL d   1     -11.782  -9.133  -2.365 -0.05 -0.10    +0.194 C 
DOCKED: ATOM      3  C   UNL d   1     -11.095  -9.337  -1.013 -0.06 -0.11    +0.194 C 
DOCKED: ATOM      4  C   UNL d   1     -10.484  -8.057  -0.449 -0.12 -0.08    +0.194 C 
DOCKED: ATOM      5  C   UNL d   1      -9.649  -7.272  -1.453 -0.14 -0.14    +0.194 C 
DOCKED: ATOM      6  C   UNL d   1     -10.311  -7.121  -2.824 -0.15 -0.13    +0.194 C 
DOCKED: ENDROOT
DOCKED: BRANCH   1   7
DOCKED: ATOM      7  O   UNL d   1     -11.625  -8.132  -4.538 -0.07 +0.11    -0.278 OA
DOCKED: BRANCH   7   8
DOCKED: ATOM      8  P   UNL d   1     -11.251  -8.866  -5.906 -0.08 -0.18    +0.473 P 
DOCKED: ATOM      9  O   UNL d   1     -10.526 -10.157  -5.751 -0.15 +0.12    -0.228 OA
DOCKED: BRANCH   8  10
DOCKED: ATOM     10  O   UNL d   1     -12.649  -9.018  -6.659 -0.02 +0.06    -0.303 OA
DOCKED: ATOM     11  H   UNL d   1     -13.292  -9.454  -6.070 +0.03 -0.04    +0.222 HD
DOCKED: ENDBRANCH   8  10
DOCKED: BRANCH   8  12
DOCKED: ATOM     12  O   UNL d   1     -10.519  -7.761  -6.782 -0.18 +0.11    -0.303 OA
DOCKED: ATOM     13  H   UNL d   1     -10.883  -6.857  -6.644 -0.37 -0.11    +0.222 HD
DOCKED: ENDBRANCH   8  12
DOCKED: ENDBRANCH   7   8
DOCKED: ENDBRANCH   1   7
DOCKED: BRANCH   2  14
DOCKED: ATOM     14  O   UNL d   1     -12.948  -8.324  -2.166 -0.01 +0.05    -0.278 OA
DOCKED: BRANCH  14  15
DOCKED: ATOM     15  P   UNL d   1     -14.347  -8.964  -2.611 +0.01 -0.04    +0.473 P 
DOCKED: ATOM     16  O   UNL d   1     -15.584  -8.234  -2.190 -0.00 +0.00    -0.228 OA
DOCKED: BRANCH  15  17
DOCKED: ATOM     17  O   UNL d   1     -14.223  -9.105  -4.193 +0.00 +0.04    -0.303 OA
DOCKED: ATOM     18  H   UNL d   1     -13.318  -8.897  -4.495 +0.02 -0.04    +0.222 HD
DOCKED: ENDBRANCH  15  17
DOCKED: BRANCH  15  19
DOCKED: ATOM     19  O   UNL d   1     -14.255 -10.482  -2.146 +0.00 +0.04    -0.303 OA
DOCKED: ATOM     20  H   UNL d   1     -13.638 -10.593  -1.399 +0.01 -0.03    +0.222 HD
DOCKED: ENDBRANCH  15  19
DOCKED: ENDBRANCH  14  15
DOCKED: ENDBRANCH   2  14
DOCKED: BRANCH   6  21
DOCKED: ATOM     21  O   UNL d   1      -9.295  -6.686  -3.726 -0.27 +0.18    -0.278 OA
DOCKED: BRANCH  21  22
DOCKED: ATOM     22  P   UNL d   1      -9.558  -5.424  -4.665 -0.30 -0.11    +0.473 P 
DOCKED: ATOM     23  O   UNL d   1      -9.053  -4.094  -4.217 -0.26 +0.01    -0.228 OA
DOCKED: BRANCH  22  24
DOCKED: ATOM     24  O   UNL d   1      -8.972  -5.926  -6.057 -0.31 +0.09    -0.303 OA
DOCKED: ATOM     25  H   UNL d   1      -9.724  -6.008  -6.697 -0.16 -0.14    +0.222 HD
DOCKED: ENDBRANCH  22  24
DOCKED: BRANCH  22  26
DOCKED: ATOM     26  O   UNL d   1     -11.139  -5.527  -4.915 -0.18 +0.06    -0.303 OA
DOCKED: ATOM     27  H   UNL d   1     -11.346  -6.400  -5.308 +0.09 -0.06    +0.222 HD
DOCKED: ENDBRANCH  22  26
DOCKED: ENDBRANCH  21  22
DOCKED: ENDBRANCH   6  21
DOCKED: BRANCH   3  28
DOCKED: ATOM     28  O   UNL d   1     -12.094  -9.723  -0.078 -0.01 +0.06    -0.278 OA
DOCKED: BRANCH  28  29
DOCKED: ATOM     29  P   UNL d   1     -12.081 -11.183   0.558 +0.01 -0.08    +0.473 P 
DOCKED: ATOM     30  O   UNL d   1     -12.899 -12.198  -0.153 +0.00 +0.03    -0.228 OA
DOCKED: BRANCH  29  31
DOCKED: ATOM     31  O   UNL d   1     -10.503 -11.442   0.629 -0.01 +0.10    -0.303 OA
DOCKED: ATOM     32  H   UNL d   1     -10.049 -10.577   0.752 +0.04 -0.08    +0.222 HD
DOCKED: ENDBRANCH  29  31
DOCKED: BRANCH  29  33
DOCKED: ATOM     33  O   UNL d   1     -12.458 -10.889   2.076 +0.00 +0.01    -0.303 OA
DOCKED: ATOM     34  H   UNL d   1     -12.203  -9.960   2.297 +0.02 -0.00    +0.222 HD
DOCKED: ENDBRANCH  29  33
DOCKED: ENDBRANCH  28  29
DOCKED: ENDBRANCH   3  28
DOCKED: BRANCH   5  35
DOCKED: ATOM     35  O   UNL d   1      -9.514  -5.963  -0.905 -0.14 +0.04    -0.278 OA
DOCKED: BRANCH  35  36
DOCKED: ATOM     36  P   UNL d   1     -10.805  -5.146  -0.446 -0.13 +0.07    +0.473 P 
DOCKED: ATOM     37  O   UNL d   1     -10.839  -3.709  -0.858 -0.22 -0.06    -0.228 OA
DOCKED: BRANCH  36  38
DOCKED: ATOM     38  O   UNL d   1     -11.983  -6.029  -1.053 -0.04 -0.01    -0.303 OA
DOCKED: ATOM     39  H   UNL d   1     -12.231  -6.723  -0.404 +0.05 +0.01    +0.222 HD
DOCKED: ENDBRANCH  36  38
DOCKED: BRANCH  36  40
DOCKED: ATOM     40  O   UNL d   1     -10.863  -5.451   1.114 -0.13 -0.13    -0.303 OA
DOCKED: ATOM     41  H   UNL d   1     -10.462  -6.322   1.330 +0.07 +0.04    +0.222 HD
DOCKED: ENDBRANCH  36  40
DOCKED: ENDBRANCH  35  36
DOCKED: ENDBRANCH   5  35
DOCKED: BRANCH   4  42
DOCKED: ATOM     42  O   UNL d   1      -9.608  -8.448   0.613 -0.14 +0.10    -0.278 OA
DOCKED: BRANCH  42  43
DOCKED: ATOM     43  P   UNL d   1     -10.101  -8.283   2.121 -0.08 -0.00    +0.473 P 
DOCKED: ATOM     44  O   UNL d   1      -9.403  -7.274   2.966 -0.25 -0.03    -0.228 OA
DOCKED: BRANCH  43  45
DOCKED: ATOM     45  O   UNL d   1     -11.662  -8.022   1.951 -0.04 -0.03    -0.303 OA
DOCKED: ATOM     46  H   UNL d   1     -12.110  -8.789   1.542 +0.03 +0.00    +0.222 HD
DOCKED: ENDBRANCH  43  45
DOCKED: BRANCH  43  47
DOCKED: ATOM     47  O   UNL d   1     -10.081  -9.786   2.679 -0.02 +0.01    -0.303 OA
DOCKED: ATOM     48  H   UNL d   1     -10.739 -10.321   2.188 +0.03 -0.02    +0.222 HD
DOCKED: ENDBRANCH  43  47
DOCKED: ENDBRANCH  42  43
DOCKED: ENDBRANCH   4  42
DOCKED: TORSDOF 24
DOCKED: TER
DOCKED: ENDMDL
________________________________________________________________________________


	BEGINNING GENETIC ALGORITHM DOCKING 30 of 100
Run: 30 Seed: 994103417 481068941 [ Run 30 of 100 GA/GALS ]
Beginning LAMARCKIAN GENETIC ALGORITHM (LGA), with a maximum of 25000000 energy evaluations.

Final-Value: -17.105


	FINAL GENETIC ALGORITHM DOCKED STATE
	_______________________________________________


Detailed state:  trans 6.069 13.903 19.220 quatxyzw -0.518308 0.635091 0.084046 0.566527 center 0.035 0.082 -0.065 ntor 24 143.9505 144.7390 132.5262 -38.2175 -35.5692 175.5581 40.4229 -148.8719 -88.4241 120.5821 -147.0221 84.9533 -72.8112 90.3902 -144.9195 -124.0578 -2.5110 31.7160 19.6824 -22.5097 -61.7544 45.2022 142.3058 -169.3671
State:	  6.069  13.903  19.220  -0.629  0.771  0.102 110.983    143.95  144.74  132.53  -38.22  -35.57  175.56   40.42 -148.87  -88.42  120.58 -147.02   84.95  -72.81   90.39 -144.92 -124.06   -2.51   31.72   19.68  -22.51  -61.75   45.20  142.31 -169.37

DOCKED: MODEL       30
DOCKED: USER    Run = 30
DOCKED: USER    DPF = D:/Protein_go_brrr/autodock/final/mut_D99N/IHP/dock.dpf
DOCKED: USER  
DOCKED: USER    Estimated Free Energy of Binding    =   +2.70 kcal/mol  [=(1)+(2)+(3)-(4)]
DOCKED: USER    
DOCKED: USER    (1) Final Intermolecular Energy     =   -4.46 kcal/mol
DOCKED: USER        vdW + Hbond + desolv Energy     =   -4.16 kcal/mol
DOCKED: USER        Electrostatic Energy            =   -0.30 kcal/mol
DOCKED: USER    (2) Final Total Internal Energy     =  -12.64 kcal/mol
DOCKED: USER    (3) Torsional Free Energy           =   +7.16 kcal/mol
DOCKED: USER    (4) Unbound System's Energy  [=(2)] =  -12.64 kcal/mol
DOCKED: USER    
DOCKED: USER    
DOCKED: USER    NEWDPF move IHP_ideal_opt.pdbqt
DOCKED: USER    NEWDPF about 0.035000 0.082000 -0.065000
DOCKED: USER    NEWDPF tran0 6.068706 13.903101 19.219554
DOCKED: USER    NEWDPF quaternion0 -0.518308 0.635091 0.084046 0.566527
DOCKED: USER    NEWDPF axisangle0 -0.628981 0.770701 0.101992 110.983271
DOCKED: USER    NEWDPF quat0 -0.628981 0.770701 0.101992 110.983271
DOCKED: USER    NEWDPF dihe0 143.95 144.74 132.53 -38.22 -35.57 175.56 40.42 -148.87 -88.42 120.58 -147.02 84.95 -72.81 90.39 -144.92 -124.06 -2.51 31.72 19.68 -22.51 -61.75 45.20 142.31 -169.37 
DOCKED: USER  keepresnum = 1 
DOCKED: USER  
DOCKED: REMARK  24 active torsions:
DOCKED: REMARK  status: ('A' for Active; 'I' for Inactive)
DOCKED: REMARK    1  A    between atoms: C_1  and  O_7 
DOCKED: REMARK    2  A    between atoms: C_2  and  O_12 
DOCKED: REMARK    3  A    between atoms: C_3  and  O_17 
DOCKED: REMARK    4  A    between atoms: C_4  and  O_22 
DOCKED: REMARK    5  A    between atoms: C_5  and  O_27 
DOCKED: REMARK    6  A    between atoms: C_6  and  O_32 
DOCKED: REMARK    7  A    between atoms: O_7  and  P_8 
DOCKED: REMARK    8  A    between atoms: P_8  and  O_10 
DOCKED: REMARK    9  A    between atoms: P_8  and  O_11 
DOCKED: REMARK   10  A    between atoms: O_12  and  P_13 
DOCKED: REMARK   11  A    between atoms: P_13  and  O_15 
DOCKED: REMARK   12  A    between atoms: P_13  and  O_16 
DOCKED: REMARK   13  A    between atoms: O_17  and  P_18 
DOCKED: REMARK   14  A    between atoms: P_18  and  O_20 
DOCKED: REMARK   15  A    between atoms: P_18  and  O_21 
DOCKED: REMARK   16  A    between atoms: O_22  and  P_23 
DOCKED: REMARK   17  A    between atoms: P_23  and  O_25 
DOCKED: REMARK   18  A    between atoms: P_23  and  O_26 
DOCKED: REMARK   19  A    between atoms: O_27  and  P_28 
DOCKED: REMARK   20  A    between atoms: P_28  and  O_30 
DOCKED: REMARK   21  A    between atoms: P_28  and  O_31 
DOCKED: REMARK   22  A    between atoms: O_32  and  P_33 
DOCKED: REMARK   23  A    between atoms: P_33  and  O_35 
DOCKED: REMARK   24  A    between atoms: P_33  and  O_36 
DOCKED: USER                              x       y       z     vdW  Elec       q    Type
DOCKED: USER                           _______ _______ _______ _____ _____    ______ ____
DOCKED: ROOT
DOCKED: ATOM      1  C   UNL d   1       6.155  12.180  19.124 -0.16 -0.02    +0.194 C 
DOCKED: ATOM      2  C   UNL d   1       6.682  12.938  17.903 -0.10 -0.01    +0.194 C 
DOCKED: ATOM      3  C   UNL d   1       5.763  14.099  17.517 -0.12 -0.01    +0.194 C 
DOCKED: ATOM      4  C   UNL d   1       5.450  15.032  18.684 -0.07 -0.02    +0.194 C 
DOCKED: ATOM      5  C   UNL d   1       5.030  14.311  19.959 -0.09 -0.02    +0.194 C 
DOCKED: ATOM      6  C   UNL d   1       5.913  13.112  20.312 -0.09 -0.03    +0.194 C 
DOCKED: ENDROOT
DOCKED: BRANCH   1   7
DOCKED: ATOM      7  O   UNL d   1       7.147  11.231  19.522 -0.10 +0.08    -0.278 OA
DOCKED: BRANCH   7   8
DOCKED: ATOM      8  P   UNL d   1       6.924   9.696  19.142 -0.20 -0.31    +0.473 P 
DOCKED: ATOM      9  O   UNL d   1       5.514   9.315  18.854 -0.91 +0.11    -0.228 OA
DOCKED: BRANCH   8  10
DOCKED: ATOM     10  O   UNL d   1       7.905   9.456  17.907 -0.16 +0.12    -0.303 OA
DOCKED: ATOM     11  H   UNL d   1       8.210  10.315  17.561 +0.05 -0.05    +0.222 HD
DOCKED: ENDBRANCH   8  10
DOCKED: BRANCH   8  12
DOCKED: ATOM     12  O   UNL d   1       7.640   8.876  20.300 -0.06 +0.38    -0.303 OA
DOCKED: ATOM     13  H   UNL d   1       7.014   8.543  20.981 -0.35 -0.55    +0.222 HD
DOCKED: ENDBRANCH   8  12
DOCKED: ENDBRANCH   7   8
DOCKED: ENDBRANCH   1   7
DOCKED: BRANCH   2  14
DOCKED: ATOM     14  O   UNL d   1       7.980  13.464  18.205 -0.03 +0.02    -0.278 OA
DOCKED: BRANCH  14  15
DOCKED: ATOM     15  P   UNL d   1       9.222  12.773  17.465 -0.02 -0.04    +0.473 P 
DOCKED: ATOM     16  O   UNL d   1      10.369  13.664  17.105 -0.01 +0.01    -0.228 OA
DOCKED: BRANCH  15  17
DOCKED: ATOM     17  O   UNL d   1       9.644  11.587  18.442 -0.01 +0.04    -0.303 OA
DOCKED: ATOM     18  H   UNL d   1       8.861  11.178  18.857 +0.04 -0.05    +0.222 HD
DOCKED: ENDBRANCH  15  17
DOCKED: BRANCH  15  19
DOCKED: ATOM     19  O   UNL d   1       8.568  11.973  16.256 -0.07 +0.02    -0.303 OA
DOCKED: ATOM     20  H   UNL d   1       8.444  11.031  16.472 +0.04 -0.02    +0.222 HD
DOCKED: ENDBRANCH  15  19
DOCKED: ENDBRANCH  14  15
DOCKED: ENDBRANCH   2  14
DOCKED: BRANCH   6  21
DOCKED: ATOM     21  O   UNL d   1       5.210  12.359  21.297 -0.09 +0.06    -0.278 OA
DOCKED: BRANCH  21  22
DOCKED: ATOM     22  P   UNL d   1       5.987  11.266  22.161 -0.04 -0.17    +0.473 P 
DOCKED: ATOM     23  O   UNL d   1       5.606   9.833  21.993 -0.14 +0.19    -0.228 OA
DOCKED: BRANCH  22  24
DOCKED: ATOM     24  O   UNL d   1       7.505  11.597  21.817 -0.01 +0.09    -0.303 OA
DOCKED: ATOM     25  H   UNL d   1       7.823  10.934  21.153 +0.04 -0.08    +0.222 HD
DOCKED: ENDBRANCH  22  24
DOCKED: BRANCH  22  26
DOCKED: ATOM     26  O   UNL d   1       5.845  11.861  23.643 -0.01 +0.07    -0.303 OA
DOCKED: ATOM     27  H   UNL d   1       5.320  12.686  23.610 +0.02 -0.04    +0.222 HD
DOCKED: ENDBRANCH  22  26
DOCKED: ENDBRANCH  21  22
DOCKED: ENDBRANCH   6  21
DOCKED: BRANCH   3  28
DOCKED: ATOM     28  O   UNL d   1       6.460  14.899  16.570 -0.04 +0.01    -0.278 OA
DOCKED: BRANCH  28  29
DOCKED: ATOM     29  P   UNL d   1       5.656  15.818  15.548 -0.02 -0.03    +0.473 P 
DOCKED: ATOM     30  O   UNL d   1       6.317  16.048  14.237 -0.02 +0.01    -0.228 OA
DOCKED: BRANCH  29  31
DOCKED: ATOM     31  O   UNL d   1       4.251  15.052  15.528 -0.08 +0.03    -0.303 OA
DOCKED: ATOM     32  H   UNL d   1       3.666  15.452  16.211 +0.04 -0.04    +0.222 HD
DOCKED: ENDBRANCH  29  31
DOCKED: BRANCH  29  33
DOCKED: ATOM     33  O   UNL d   1       5.342  17.105  16.431 -0.01 +0.02    -0.303 OA
DOCKED: ATOM     34  H   UNL d   1       4.478  16.974  16.893 +0.02 -0.02    +0.222 HD
DOCKED: ENDBRANCH  29  33
DOCKED: ENDBRANCH  28  29
DOCKED: ENDBRANCH   3  28
DOCKED: BRANCH   5  35
DOCKED: ATOM     35  O   UNL d   1       5.179  15.265  21.009 -0.02 +0.03    -0.278 OA
DOCKED: BRANCH  35  36
DOCKED: ATOM     36  P   UNL d   1       6.582  15.436  21.748 -0.00 -0.04    +0.473 P 
DOCKED: ATOM     37  O   UNL d   1       7.785  15.415  20.860 -0.01 +0.02    -0.228 OA
DOCKED: BRANCH  36  38
DOCKED: ATOM     38  O   UNL d   1       6.372  16.805  22.534 -0.00 +0.02    -0.303 OA
DOCKED: ATOM     39  H   UNL d   1       7.249  17.193  22.744 +0.00 -0.01    +0.222 HD
DOCKED: ENDBRANCH  36  38
DOCKED: BRANCH  36  40
DOCKED: ATOM     40  O   UNL d   1       6.504  14.327  22.885 -0.00 +0.03    -0.303 OA
DOCKED: ATOM     41  H   UNL d   1       6.694  13.429  22.532 +0.02 -0.03    +0.222 HD
DOCKED: ENDBRANCH  36  40
DOCKED: ENDBRANCH  35  36
DOCKED: ENDBRANCH   5  35
DOCKED: BRANCH   4  42
DOCKED: ATOM     42  O   UNL d   1       4.345  15.847  18.278 -0.05 +0.03    -0.278 OA
DOCKED: BRANCH  42  43
DOCKED: ATOM     43  P   UNL d   1       2.872  15.238  18.344 -0.06 -0.10    +0.473 P 
DOCKED: ATOM     44  O   UNL d   1       2.220  15.161  19.681 -0.14 +0.04    -0.228 OA
DOCKED: BRANCH  43  45
DOCKED: ATOM     45  O   UNL d   1       2.082  16.123  17.283 -0.10 +0.09    -0.303 OA
DOCKED: ATOM     46  H   UNL d   1       1.461  15.580  16.756 -0.50 -0.12    +0.222 HD
DOCKED: ENDBRANCH  43  45
DOCKED: BRANCH  43  47
DOCKED: ATOM     47  O   UNL d   1       3.017  13.846  17.563 -0.05 +0.07    -0.303 OA
DOCKED: ATOM     48  H   UNL d   1       2.741  13.968  16.631 -0.46 -0.10    +0.222 HD
DOCKED: ENDBRANCH  43  47
DOCKED: ENDBRANCH  42  43
DOCKED: ENDBRANCH   4  42
DOCKED: TORSDOF 24
DOCKED: TER
DOCKED: ENDMDL
________________________________________________________________________________


	BEGINNING GENETIC ALGORITHM DOCKING 31 of 100
Run: 31 Seed: 2069307504 241004489 [ Run 31 of 100 GA/GALS ]
Beginning LAMARCKIAN GENETIC ALGORITHM (LGA), with a maximum of 25000000 energy evaluations.

Final-Value: -18.027


	FINAL GENETIC ALGORITHM DOCKED STATE
	_______________________________________________


Detailed state:  trans 6.009 14.707 0.016 quatxyzw 0.472673 0.675293 0.545929 -0.150071 center 0.035 0.082 -0.065 ntor 24 74.9932 142.7867 124.9463 -4.6847 -6.3788 -163.0774 -63.0714 -26.3050 96.5071 -39.1417 -141.3585 -164.9738 -37.9419 75.1005 176.3950 179.6417 175.7288 152.8471 39.9795 -21.4620 177.1217 -7.4350 22.9962 -177.4315
State:	  6.009  14.707   0.016   0.478  0.683  0.552 -162.738     74.99  142.79  124.95   -4.68   -6.38 -163.08  -63.07  -26.30   96.51  -39.14 -141.36 -164.97  -37.94   75.10  176.40  179.64  175.73  152.85   39.98  -21.46  177.12   -7.44   23.00 -177.43

DOCKED: MODEL       31
DOCKED: USER    Run = 31
DOCKED: USER    DPF = D:/Protein_go_brrr/autodock/final/mut_D99N/IHP/dock.dpf
DOCKED: USER  
DOCKED: USER    Estimated Free Energy of Binding    =   +3.52 kcal/mol  [=(1)+(2)+(3)-(4)]
DOCKED: USER    
DOCKED: USER    (1) Final Intermolecular Energy     =   -3.64 kcal/mol
DOCKED: USER        vdW + Hbond + desolv Energy     =   -3.59 kcal/mol
DOCKED: USER        Electrostatic Energy            =   -0.05 kcal/mol
DOCKED: USER    (2) Final Total Internal Energy     =  -14.39 kcal/mol
DOCKED: USER    (3) Torsional Free Energy           =   +7.16 kcal/mol
DOCKED: USER    (4) Unbound System's Energy  [=(2)] =  -14.39 kcal/mol
DOCKED: USER    
DOCKED: USER    
DOCKED: USER    NEWDPF move IHP_ideal_opt.pdbqt
DOCKED: USER    NEWDPF about 0.035000 0.082000 -0.065000
DOCKED: USER    NEWDPF tran0 6.008515 14.707487 0.016023
DOCKED: USER    NEWDPF quaternion0 0.472673 0.675293 0.545929 -0.150071
DOCKED: USER    NEWDPF axisangle0 0.478087 0.683028 0.552182 -162.737891
DOCKED: USER    NEWDPF quat0 0.478087 0.683028 0.552182 -162.737891
DOCKED: USER    NEWDPF dihe0 74.99 142.79 124.95 -4.68 -6.38 -163.08 -63.07 -26.30 96.51 -39.14 -141.36 -164.97 -37.94 75.10 176.40 179.64 175.73 152.85 39.98 -21.46 177.12 -7.44 23.00 -177.43 
DOCKED: USER  keepresnum = 1 
DOCKED: USER  
DOCKED: REMARK  24 active torsions:
DOCKED: REMARK  status: ('A' for Active; 'I' for Inactive)
DOCKED: REMARK    1  A    between atoms: C_1  and  O_7 
DOCKED: REMARK    2  A    between atoms: C_2  and  O_12 
DOCKED: REMARK    3  A    between atoms: C_3  and  O_17 
DOCKED: REMARK    4  A    between atoms: C_4  and  O_22 
DOCKED: REMARK    5  A    between atoms: C_5  and  O_27 
DOCKED: REMARK    6  A    between atoms: C_6  and  O_32 
DOCKED: REMARK    7  A    between atoms: O_7  and  P_8 
DOCKED: REMARK    8  A    between atoms: P_8  and  O_10 
DOCKED: REMARK    9  A    between atoms: P_8  and  O_11 
DOCKED: REMARK   10  A    between atoms: O_12  and  P_13 
DOCKED: REMARK   11  A    between atoms: P_13  and  O_15 
DOCKED: REMARK   12  A    between atoms: P_13  and  O_16 
DOCKED: REMARK   13  A    between atoms: O_17  and  P_18 
DOCKED: REMARK   14  A    between atoms: P_18  and  O_20 
DOCKED: REMARK   15  A    between atoms: P_18  and  O_21 
DOCKED: REMARK   16  A    between atoms: O_22  and  P_23 
DOCKED: REMARK   17  A    between atoms: P_23  and  O_25 
DOCKED: REMARK   18  A    between atoms: P_23  and  O_26 
DOCKED: REMARK   19  A    between atoms: O_27  and  P_28 
DOCKED: REMARK   20  A    between atoms: P_28  and  O_30 
DOCKED: REMARK   21  A    between atoms: P_28  and  O_31 
DOCKED: REMARK   22  A    between atoms: O_32  and  P_33 
DOCKED: REMARK   23  A    between atoms: P_33  and  O_35 
DOCKED: REMARK   24  A    between atoms: P_33  and  O_36 
DOCKED: USER                              x       y       z     vdW  Elec       q    Type
DOCKED: USER                           _______ _______ _______ _____ _____    ______ ____
DOCKED: ROOT
DOCKED: ATOM      1  C   UNL d   1       5.519  16.222  -0.656 -0.12 +0.01    +0.194 C 
DOCKED: ATOM      2  C   UNL d   1       5.506  15.035  -1.621 -0.13 +0.01    +0.194 C 
DOCKED: ATOM      3  C   UNL d   1       6.751  14.160  -1.460 -0.12 +0.02    +0.194 C 
DOCKED: ATOM      4  C   UNL d   1       7.000  13.728  -0.017 -0.05 +0.03    +0.194 C 
DOCKED: ATOM      5  C   UNL d   1       6.908  14.862   0.995 -0.17 +0.01    +0.194 C 
DOCKED: ATOM      6  C   UNL d   1       5.695  15.774   0.796 -0.13 +0.01    +0.194 C 
DOCKED: ENDROOT
DOCKED: BRANCH   1   7
DOCKED: ATOM      7  O   UNL d   1       4.256  16.884  -0.747 -0.11 -0.01    -0.278 OA
DOCKED: BRANCH   7   8
DOCKED: ATOM      8  P   UNL d   1       4.032  17.933  -1.931 -0.02 +0.01    +0.473 P 
DOCKED: ATOM      9  O   UNL d   1       5.050  17.887  -3.015 -0.01 -0.00    -0.228 OA
DOCKED: BRANCH   8  10
DOCKED: ATOM     10  O   UNL d   1       2.553  17.626  -2.445 -0.03 -0.00    -0.303 OA
DOCKED: ATOM     11  H   UNL d   1       2.573  16.877  -3.070 +0.05 -0.01    +0.222 HD
DOCKED: ENDBRANCH   8  10
DOCKED: BRANCH   8  12
DOCKED: ATOM     12  O   UNL d   1       3.848  19.337  -1.210 -0.02 -0.01    -0.303 OA
DOCKED: ATOM     13  H   UNL d   1       4.675  19.869  -1.186 +0.01 +0.00    +0.222 HD
DOCKED: ENDBRANCH   8  12
DOCKED: ENDBRANCH   7   8
DOCKED: ENDBRANCH   1   7
DOCKED: BRANCH   2  14
DOCKED: ATOM     14  O   UNL d   1       4.348  14.233  -1.361 -0.23 -0.01    -0.278 OA
DOCKED: BRANCH  14  15
DOCKED: ATOM     15  P   UNL d   1       3.199  14.252  -2.476 -0.19 -0.05    +0.473 P 
DOCKED: ATOM     16  O   UNL d   1       2.682  12.923  -2.930 -0.22 +0.07    -0.228 OA
DOCKED: BRANCH  15  17
DOCKED: ATOM     17  O   UNL d   1       2.062  15.173  -1.846 -0.19 +0.01    -0.303 OA
DOCKED: ATOM     18  H   UNL d   1       2.444  15.840  -1.243 +0.08 +0.00    +0.222 HD
DOCKED: ENDBRANCH  15  17
DOCKED: BRANCH  15  19
DOCKED: ATOM     19  O   UNL d   1       3.774  15.193  -3.622 -0.08 +0.04    -0.303 OA
DOCKED: ATOM     20  H   UNL d   1       3.890  16.110  -3.312 +0.05 -0.01    +0.222 HD
DOCKED: ENDBRANCH  15  19
DOCKED: ENDBRANCH  14  15
DOCKED: ENDBRANCH   2  14
DOCKED: BRANCH   6  21
DOCKED: ATOM     21  O   UNL d   1       5.930  16.948   1.570 -0.11 -0.01    -0.278 OA
DOCKED: BRANCH  21  22
DOCKED: ATOM     22  P   UNL d   1       6.982  18.034   1.062 -0.02 +0.01    +0.473 P 
DOCKED: ATOM     23  O   UNL d   1       7.655  18.894   2.078 -0.01 -0.00    -0.228 OA
DOCKED: BRANCH  22  24
DOCKED: ATOM     24  O   UNL d   1       7.967  17.147   0.181 -0.01 -0.01    -0.303 OA
DOCKED: ATOM     25  H   UNL d   1       8.512  16.591   0.794 +0.02 +0.01    +0.222 HD
DOCKED: ENDBRANCH  22  24
DOCKED: BRANCH  22  26
DOCKED: ATOM     26  O   UNL d   1       6.136  18.805  -0.062 -0.01 -0.01    -0.303 OA
DOCKED: ATOM     27  H   UNL d   1       5.181  18.683   0.114 +0.02 +0.01    +0.222 HD
DOCKED: ENDBRANCH  22  26
DOCKED: ENDBRANCH  21  22
DOCKED: ENDBRANCH   6  21
DOCKED: BRANCH   3  28
DOCKED: ATOM     28  O   UNL d   1       6.525  12.956  -2.182 -0.14 -0.06    -0.278 OA
DOCKED: BRANCH  28  29
DOCKED: ATOM     29  P   UNL d   1       7.213  12.726  -3.600 -0.03 +0.19    +0.473 P 
DOCKED: ATOM     30  O   UNL d   1       7.433  11.308  -3.983 -0.65 -0.18    -0.228 OA
DOCKED: BRANCH  29  31
DOCKED: ATOM     31  O   UNL d   1       6.232  13.586  -4.528 -0.22 -0.10    -0.303 OA
DOCKED: ATOM     32  H   UNL d   1       5.433  13.826  -4.003 +0.05 +0.03    +0.222 HD
DOCKED: ENDBRANCH  29  31
DOCKED: BRANCH  29  33
DOCKED: ATOM     33  O   UNL d   1       8.503  13.653  -3.499 -0.01 -0.05    -0.303 OA
DOCKED: ATOM     34  H   UNL d   1       8.817  13.666  -2.562 +0.03 +0.03    +0.222 HD
DOCKED: ENDBRANCH  29  33
DOCKED: ENDBRANCH  28  29
DOCKED: ENDBRANCH   3  28
DOCKED: BRANCH   5  35
DOCKED: ATOM     35  O   UNL d   1       6.756  14.234   2.267 -0.17 -0.01    -0.278 OA
DOCKED: BRANCH  35  36
DOCKED: ATOM     36  P   UNL d   1       7.239  14.977   3.593 -0.17 -0.03    +0.473 P 
DOCKED: ATOM     37  O   UNL d   1       7.911  14.110   4.610 -0.19 +0.02    -0.228 OA
DOCKED: BRANCH  36  38
DOCKED: ATOM     38  O   UNL d   1       8.165  16.130   3.003 -0.03 +0.00    -0.303 OA
DOCKED: ATOM     39  H   UNL d   1       7.869  16.345   2.092 +0.04 +0.00    +0.222 HD
DOCKED: ENDBRANCH  36  38
DOCKED: BRANCH  36  40
DOCKED: ATOM     40  O   UNL d   1       5.923  15.741   4.054 -0.21 +0.02    -0.303 OA
DOCKED: ATOM     41  H   UNL d   1       5.793  16.578   3.554 +0.07 -0.00    +0.222 HD
DOCKED: ENDBRANCH  36  40
DOCKED: ENDBRANCH  35  36
DOCKED: ENDBRANCH   5  35
DOCKED: BRANCH   4  42
DOCKED: ATOM     42  O   UNL d   1       8.337  13.220   0.039 -0.23 -0.05    -0.278 OA
DOCKED: BRANCH  42  43
DOCKED: ATOM     43  P   UNL d   1       9.556  14.243  -0.077 -0.02 +0.03    +0.473 P 
DOCKED: ATOM     44  O   UNL d   1      10.888  13.685  -0.439 -0.01 -0.01    -0.228 OA
DOCKED: BRANCH  43  45
DOCKED: ATOM     45  O   UNL d   1       9.004  15.328  -1.103 -0.01 -0.02    -0.303 OA
DOCKED: ATOM     46  H   UNL d   1       9.335  16.223  -0.889 +0.01 +0.01    +0.222 HD
DOCKED: ENDBRANCH  43  45
DOCKED: BRANCH  43  47
DOCKED: ATOM     47  O   UNL d   1       9.494  15.045   1.309 -0.02 -0.01    -0.303 OA
DOCKED: ATOM     48  H   UNL d   1       8.906  14.569   1.931 +0.04 +0.01    +0.222 HD
DOCKED: ENDBRANCH  43  47
DOCKED: ENDBRANCH  42  43
DOCKED: ENDBRANCH   4  42
DOCKED: TORSDOF 24
DOCKED: TER
DOCKED: ENDMDL
________________________________________________________________________________


	BEGINNING GENETIC ALGORITHM DOCKING 32 of 100
Run: 32 Seed: 1011644588 387802897 [ Run 32 of 100 GA/GALS ]
Beginning LAMARCKIAN GENETIC ALGORITHM (LGA), with a maximum of 25000000 energy evaluations.

Final-Value: -18.735


	FINAL GENETIC ALGORITHM DOCKED STATE
	_______________________________________________


Detailed state:  trans 17.763 -13.362 -1.179 quatxyzw 0.649615 0.671906 -0.003414 -0.355712 center 0.035 0.082 -0.065 ntor 24 88.4264 7.6968 119.9779 113.8711 92.6636 79.3821 -30.0652 157.1902 116.3550 -28.5563 52.2918 -4.9492 -176.5171 90.3621 68.5579 -43.0526 166.6639 -94.8339 27.8934 -24.1021 172.7827 -18.5905 12.9202 167.6327
State:	 17.763 -13.362  -1.179   0.695  0.719 -0.004 -138.326     88.43    7.70  119.98  113.87   92.66   79.38  -30.07  157.19  116.35  -28.56   52.29   -4.95 -176.52   90.36   68.56  -43.05  166.66  -94.83   27.89  -24.10  172.78  -18.59   12.92  167.63

DOCKED: MODEL       32
DOCKED: USER    Run = 32
DOCKED: USER    DPF = D:/Protein_go_brrr/autodock/final/mut_D99N/IHP/dock.dpf
DOCKED: USER  
DOCKED: USER    Estimated Free Energy of Binding    =   +1.77 kcal/mol  [=(1)+(2)+(3)-(4)]
DOCKED: USER    
DOCKED: USER    (1) Final Intermolecular Energy     =   -5.39 kcal/mol
DOCKED: USER        vdW + Hbond + desolv Energy     =   -5.21 kcal/mol
DOCKED: USER        Electrostatic Energy            =   -0.18 kcal/mol
DOCKED: USER    (2) Final Total Internal Energy     =  -13.34 kcal/mol
DOCKED: USER    (3) Torsional Free Energy           =   +7.16 kcal/mol
DOCKED: USER    (4) Unbound System's Energy  [=(2)] =  -13.34 kcal/mol
DOCKED: USER    
DOCKED: USER    
DOCKED: USER    NEWDPF move IHP_ideal_opt.pdbqt
DOCKED: USER    NEWDPF about 0.035000 0.082000 -0.065000
DOCKED: USER    NEWDPF tran0 17.763008 -13.361834 -1.179061
DOCKED: USER    NEWDPF quaternion0 0.649615 0.671906 -0.003414 -0.355712
DOCKED: USER    NEWDPF axisangle0 0.695076 0.718927 -0.003653 -138.325873
DOCKED: USER    NEWDPF quat0 0.695076 0.718927 -0.003653 -138.325873
DOCKED: USER    NEWDPF dihe0 88.43 7.70 119.98 113.87 92.66 79.38 -30.07 157.19 116.35 -28.56 52.29 -4.95 -176.52 90.36 68.56 -43.05 166.66 -94.83 27.89 -24.10 172.78 -18.59 12.92 167.63 
DOCKED: USER  keepresnum = 1 
DOCKED: USER  
DOCKED: REMARK  24 active torsions:
DOCKED: REMARK  status: ('A' for Active; 'I' for Inactive)
DOCKED: REMARK    1  A    between atoms: C_1  and  O_7 
DOCKED: REMARK    2  A    between atoms: C_2  and  O_12 
DOCKED: REMARK    3  A    between atoms: C_3  and  O_17 
DOCKED: REMARK    4  A    between atoms: C_4  and  O_22 
DOCKED: REMARK    5  A    between atoms: C_5  and  O_27 
DOCKED: REMARK    6  A    between atoms: C_6  and  O_32 
DOCKED: REMARK    7  A    between atoms: O_7  and  P_8 
DOCKED: REMARK    8  A    between atoms: P_8  and  O_10 
DOCKED: REMARK    9  A    between atoms: P_8  and  O_11 
DOCKED: REMARK   10  A    between atoms: O_12  and  P_13 
DOCKED: REMARK   11  A    between atoms: P_13  and  O_15 
DOCKED: REMARK   12  A    between atoms: P_13  and  O_16 
DOCKED: REMARK   13  A    between atoms: O_17  and  P_18 
DOCKED: REMARK   14  A    between atoms: P_18  and  O_20 
DOCKED: REMARK   15  A    between atoms: P_18  and  O_21 
DOCKED: REMARK   16  A    between atoms: O_22  and  P_23 
DOCKED: REMARK   17  A    between atoms: P_23  and  O_25 
DOCKED: REMARK   18  A    between atoms: P_23  and  O_26 
DOCKED: REMARK   19  A    between atoms: O_27  and  P_28 
DOCKED: REMARK   20  A    between atoms: P_28  and  O_30 
DOCKED: REMARK   21  A    between atoms: P_28  and  O_31 
DOCKED: REMARK   22  A    between atoms: O_32  and  P_33 
DOCKED: REMARK   23  A    between atoms: P_33  and  O_35 
DOCKED: REMARK   24  A    between atoms: P_33  and  O_36 
DOCKED: USER                              x       y       z     vdW  Elec       q    Type
DOCKED: USER                           _______ _______ _______ _____ _____    ______ ____
DOCKED: ROOT
DOCKED: ATOM      1  C   UNL d   1      17.482 -12.779  -2.781 -0.20 -0.01    +0.194 C 
DOCKED: ATOM      2  C   UNL d   1      16.482 -13.818  -2.271 -0.17 -0.02    +0.194 C 
DOCKED: ATOM      3  C   UNL d   1      17.181 -14.964  -1.535 -0.11 -0.01    +0.194 C 
DOCKED: ATOM      4  C   UNL d   1      18.126 -14.484  -0.436 -0.11 -0.02    +0.194 C 
DOCKED: ATOM      5  C   UNL d   1      19.065 -13.365  -0.869 -0.16 -0.01    +0.194 C 
DOCKED: ATOM      6  C   UNL d   1      18.377 -12.250  -1.659 -0.13 -0.01    +0.194 C 
DOCKED: ENDROOT
DOCKED: BRANCH   1   7
DOCKED: ATOM      7  O   UNL d   1      16.745 -11.668  -3.298 -0.24 +0.04    -0.278 OA
DOCKED: BRANCH   7   8
DOCKED: ATOM      8  P   UNL d   1      16.433 -11.627  -4.864 -0.13 -0.02    +0.473 P 
DOCKED: ATOM      9  O   UNL d   1      16.885 -10.395  -5.566 -0.16 -0.01    -0.228 OA
DOCKED: BRANCH   8  10
DOCKED: ATOM     10  O   UNL d   1      17.111 -12.957  -5.428 -0.05 -0.00    -0.303 OA
DOCKED: ATOM     11  H   UNL d   1      18.081 -12.874  -5.381 +0.05 +0.00    +0.222 HD
DOCKED: ENDBRANCH   8  10
DOCKED: BRANCH   8  12
DOCKED: ATOM     12  O   UNL d   1      14.885 -11.966  -4.985 -0.14 +0.01    -0.303 OA
DOCKED: ATOM     13  H   UNL d   1      14.587 -12.645  -4.338 +0.12 -0.01    +0.222 HD
DOCKED: ENDBRANCH   8  12
DOCKED: ENDBRANCH   7   8
DOCKED: ENDBRANCH   1   7
DOCKED: BRANCH   2  14
DOCKED: ATOM     14  O   UNL d   1      15.570 -13.184  -1.366 -0.19 +0.10    -0.278 OA
DOCKED: BRANCH  14  15
DOCKED: ATOM     15  P   UNL d   1      14.078 -12.953  -1.900 -0.24 -0.05    +0.473 P 
DOCKED: ATOM     16  O   UNL d   1      12.978 -13.060  -0.889 -0.92 -0.02    -0.228 OA
DOCKED: BRANCH  15  17
DOCKED: ATOM     17  O   UNL d   1      14.134 -11.524  -2.601 -0.31 +0.06    -0.303 OA
DOCKED: ATOM     18  H   UNL d   1      15.043 -11.308  -2.887 -0.34 -0.08    +0.222 HD
DOCKED: ENDBRANCH  15  17
DOCKED: BRANCH  15  19
DOCKED: ATOM     19  O   UNL d   1      13.951 -13.921  -3.156 -0.13 -0.02    -0.303 OA
DOCKED: ATOM     20  H   UNL d   1      14.182 -14.840  -2.927 +0.09 +0.04    +0.222 HD
DOCKED: ENDBRANCH  15  19
DOCKED: ENDBRANCH  14  15
DOCKED: ENDBRANCH   2  14
DOCKED: BRANCH   6  21
DOCKED: ATOM     21  O   UNL d   1      19.409 -11.482  -2.274 -0.22 +0.02    -0.278 OA
DOCKED: BRANCH  21  22
DOCKED: ATOM     22  P   UNL d   1      20.252 -12.108  -3.475 -0.06 +0.01    +0.473 P 
DOCKED: ATOM     23  O   UNL d   1      19.870 -11.741  -4.870 -0.09 -0.01    -0.228 OA
DOCKED: BRANCH  22  24
DOCKED: ATOM     24  O   UNL d   1      21.740 -11.719  -3.066 -0.05 -0.01    -0.303 OA
DOCKED: ATOM     25  H   UNL d   1      21.774 -11.624  -2.080 +0.05 +0.01    +0.222 HD
DOCKED: ENDBRANCH  22  24
DOCKED: BRANCH  22  26
DOCKED: ATOM     26  O   UNL d   1      20.210 -13.671  -3.123 -0.02 -0.00    -0.303 OA
DOCKED: ATOM     27  H   UNL d   1      21.015 -13.910  -2.620 +0.03 +0.00    +0.222 HD
DOCKED: ENDBRANCH  22  26
DOCKED: ENDBRANCH  21  22
DOCKED: ENDBRANCH   6  21
DOCKED: BRANCH   3  28
DOCKED: ATOM     28  O   UNL d   1      16.179 -15.719  -0.867 -0.14 -0.02    -0.278 OA
DOCKED: BRANCH  28  29
DOCKED: ATOM     29  P   UNL d   1      15.507 -16.974  -1.582 -0.05 +0.19    +0.473 P 
DOCKED: ATOM     30  O   UNL d   1      14.629 -16.659  -2.738 -0.08 -0.07    -0.228 OA
DOCKED: BRANCH  29  31
DOCKED: ATOM     31  O   UNL d   1      16.810 -17.856  -1.879 -0.00 -0.04    -0.303 OA
DOCKED: ATOM     32  H   UNL d   1      17.527 -17.573  -1.265 +0.02 +0.02    +0.222 HD
DOCKED: ENDBRANCH  29  31
DOCKED: BRANCH  29  33
DOCKED: ATOM     33  O   UNL d   1      14.837 -17.738  -0.356 -0.53 -0.32    -0.303 OA
DOCKED: ATOM     34  H   UNL d   1      14.911 -18.712  -0.506 +0.02 +0.11    +0.222 HD
DOCKED: ENDBRANCH  29  33
DOCKED: ENDBRANCH  28  29
DOCKED: ENDBRANCH   3  28
DOCKED: BRANCH   5  35
DOCKED: ATOM     35  O   UNL d   1      19.557 -12.784   0.336 -0.21 +0.01    -0.278 OA
DOCKED: BRANCH  35  36
DOCKED: ATOM     36  P   UNL d   1      21.063 -12.265   0.424 -0.15 +0.04    +0.473 P 
DOCKED: ATOM     37  O   UNL d   1      21.700 -12.358   1.774 -0.15 -0.06    -0.228 OA
DOCKED: BRANCH  36  38
DOCKED: ATOM     38  O   UNL d   1      21.776 -13.144  -0.697 -0.03 -0.02    -0.303 OA
DOCKED: ATOM     39  H   UNL d   1      21.225 -13.136  -1.510 +0.04 +0.01    +0.222 HD
DOCKED: ENDBRANCH  36  38
DOCKED: BRANCH  36  40
DOCKED: ATOM     40  O   UNL d   1      20.963 -10.819  -0.230 -0.08 +0.01    -0.303 OA
DOCKED: ATOM     41  H   UNL d   1      20.798 -10.867  -1.198 -0.06 -0.03    +0.222 HD
DOCKED: ENDBRANCH  36  40
DOCKED: ENDBRANCH  35  36
DOCKED: ENDBRANCH   5  35
DOCKED: BRANCH   4  42
DOCKED: ATOM     42  O   UNL d   1      18.943 -15.603  -0.075 -0.04 +0.01    -0.278 OA
DOCKED: BRANCH  42  43
DOCKED: ATOM     43  P   UNL d   1      19.799 -16.331  -1.207 +0.01 +0.01    +0.473 P 
DOCKED: ATOM     44  O   UNL d   1      19.095 -16.706  -2.465 -0.00 -0.00    -0.228 OA
DOCKED: BRANCH  43  45
DOCKED: ATOM     45  O   UNL d   1      21.020 -15.332  -1.418 -0.00 -0.01    -0.303 OA
DOCKED: ATOM     46  H   UNL d   1      20.806 -14.433  -1.098 +0.03 +0.00    +0.222 HD
DOCKED: ENDBRANCH  43  45
DOCKED: BRANCH  43  47
DOCKED: ATOM     47  O   UNL d   1      20.498 -17.538  -0.418 +0.00 -0.01    -0.303 OA
DOCKED: ATOM     48  H   UNL d   1      20.977 -18.107  -1.057 +0.00 +0.01    +0.222 HD
DOCKED: ENDBRANCH  43  47
DOCKED: ENDBRANCH  42  43
DOCKED: ENDBRANCH   4  42
DOCKED: TORSDOF 24
DOCKED: TER
DOCKED: ENDMDL
________________________________________________________________________________


	BEGINNING GENETIC ALGORITHM DOCKING 33 of 100
Run: 33 Seed: 700105112 256308272 [ Run 33 of 100 GA/GALS ]
Beginning LAMARCKIAN GENETIC ALGORITHM (LGA), with a maximum of 25000000 energy evaluations.

Final-Value: -16.775


	FINAL GENETIC ALGORITHM DOCKED STATE
	_______________________________________________


Detailed state:  trans -11.526 13.955 -18.946 quatxyzw 0.345835 0.304942 -0.486454 -0.742139 center 0.035 0.082 -0.065 ntor 24 134.0089 48.6603 129.7070 -60.5214 -25.3550 167.9340 -26.9294 -11.7197 129.2960 -21.1797 17.7875 -1.7904 -177.3668 -164.2405 -176.0969 142.8302 -180.0000 -81.7795 27.7945 -23.6139 169.5755 -29.0257 7.5393 164.2992
State:	-11.526  13.955 -18.946   0.516  0.455 -0.726 -84.172    134.01   48.66  129.71  -60.52  -25.35  167.93  -26.93  -11.72  129.30  -21.18   17.79   -1.79 -177.37 -164.24 -176.10  142.83 -180.00  -81.78   27.79  -23.61  169.58  -29.03    7.54  164.30

DOCKED: MODEL       33
DOCKED: USER    Run = 33
DOCKED: USER    DPF = D:/Protein_go_brrr/autodock/final/mut_D99N/IHP/dock.dpf
DOCKED: USER  
DOCKED: USER    Estimated Free Energy of Binding    =   +3.90 kcal/mol  [=(1)+(2)+(3)-(4)]
DOCKED: USER    
DOCKED: USER    (1) Final Intermolecular Energy     =   -3.26 kcal/mol
DOCKED: USER        vdW + Hbond + desolv Energy     =   -2.84 kcal/mol
DOCKED: USER        Electrostatic Energy            =   -0.42 kcal/mol
DOCKED: USER    (2) Final Total Internal Energy     =  -13.51 kcal/mol
DOCKED: USER    (3) Torsional Free Energy           =   +7.16 kcal/mol
DOCKED: USER    (4) Unbound System's Energy  [=(2)] =  -13.51 kcal/mol
DOCKED: USER    
DOCKED: USER    
DOCKED: USER    NEWDPF move IHP_ideal_opt.pdbqt
DOCKED: USER    NEWDPF about 0.035000 0.082000 -0.065000
DOCKED: USER    NEWDPF tran0 -11.525502 13.954825 -18.946196
DOCKED: USER    NEWDPF quaternion0 0.345835 0.304942 -0.486454 -0.742139
DOCKED: USER    NEWDPF axisangle0 0.515983 0.454970 -0.725785 -84.172116
DOCKED: USER    NEWDPF quat0 0.515983 0.454970 -0.725785 -84.172116
DOCKED: USER    NEWDPF dihe0 134.01 48.66 129.71 -60.52 -25.35 167.93 -26.93 -11.72 129.30 -21.18 17.79 -1.79 -177.37 -164.24 -176.10 142.83 -180.00 -81.78 27.79 -23.61 169.58 -29.03 7.54 164.30 
DOCKED: USER  keepresnum = 1 
DOCKED: USER  
DOCKED: REMARK  24 active torsions:
DOCKED: REMARK  status: ('A' for Active; 'I' for Inactive)
DOCKED: REMARK    1  A    between atoms: C_1  and  O_7 
DOCKED: REMARK    2  A    between atoms: C_2  and  O_12 
DOCKED: REMARK    3  A    between atoms: C_3  and  O_17 
DOCKED: REMARK    4  A    between atoms: C_4  and  O_22 
DOCKED: REMARK    5  A    between atoms: C_5  and  O_27 
DOCKED: REMARK    6  A    between atoms: C_6  and  O_32 
DOCKED: REMARK    7  A    between atoms: O_7  and  P_8 
DOCKED: REMARK    8  A    between atoms: P_8  and  O_10 
DOCKED: REMARK    9  A    between atoms: P_8  and  O_11 
DOCKED: REMARK   10  A    between atoms: O_12  and  P_13 
DOCKED: REMARK   11  A    between atoms: P_13  and  O_15 
DOCKED: REMARK   12  A    between atoms: P_13  and  O_16 
DOCKED: REMARK   13  A    between atoms: O_17  and  P_18 
DOCKED: REMARK   14  A    between atoms: P_18  and  O_20 
DOCKED: REMARK   15  A    between atoms: P_18  and  O_21 
DOCKED: REMARK   16  A    between atoms: O_22  and  P_23 
DOCKED: REMARK   17  A    between atoms: P_23  and  O_25 
DOCKED: REMARK   18  A    between atoms: P_23  and  O_26 
DOCKED: REMARK   19  A    between atoms: O_27  and  P_28 
DOCKED: REMARK   20  A    between atoms: P_28  and  O_30 
DOCKED: REMARK   21  A    between atoms: P_28  and  O_31 
DOCKED: REMARK   22  A    between atoms: O_32  and  P_33 
DOCKED: REMARK   23  A    between atoms: P_33  and  O_35 
DOCKED: REMARK   24  A    between atoms: P_33  and  O_36 
DOCKED: USER                              x       y       z     vdW  Elec       q    Type
DOCKED: USER                           _______ _______ _______ _____ _____    ______ ____
DOCKED: ROOT
DOCKED: ATOM      1  C   UNL d   1     -11.835  12.418 -19.673 -0.06 -0.13    +0.194 C 
DOCKED: ATOM      2  C   UNL d   1     -13.053  13.124 -19.074 -0.04 -0.13    +0.194 C 
DOCKED: ATOM      3  C   UNL d   1     -12.736  13.746 -17.712 -0.06 -0.12    +0.194 C 
DOCKED: ATOM      4  C   UNL d   1     -11.501  14.644 -17.735 -0.04 -0.07    +0.194 C 
DOCKED: ATOM      5  C   UNL d   1     -10.294  14.023 -18.426 -0.06 -0.06    +0.194 C 
DOCKED: ATOM      6  C   UNL d   1     -10.623  13.347 -19.759 -0.04 -0.07    +0.194 C 
DOCKED: ENDROOT
DOCKED: BRANCH   1   7
DOCKED: ATOM      7  O   UNL d   1     -12.161  12.019 -21.006 -0.02 +0.11    -0.278 OA
DOCKED: BRANCH   7   8
DOCKED: ATOM      8  P   UNL d   1     -12.702  10.535 -21.243 -0.02 -0.21    +0.473 P 
DOCKED: ATOM      9  O   UNL d   1     -11.949   9.743 -22.255 -0.01 +0.05    -0.228 OA
DOCKED: BRANCH   8  10
DOCKED: ATOM     10  O   UNL d   1     -12.680   9.878 -19.789 -0.03 +0.36    -0.303 OA
DOCKED: ATOM     11  H   UNL d   1     -12.032  10.345 -19.230 -0.30 -0.42    +0.222 HD
DOCKED: ENDBRANCH   8  10
DOCKED: BRANCH   8  12
DOCKED: ATOM     12  O   UNL d   1     -14.259  10.700 -21.510 -0.01 +0.10    -0.303 OA
DOCKED: ATOM     13  H   UNL d   1     -14.549  11.639 -21.531 +0.01 -0.06    +0.222 HD
DOCKED: ENDBRANCH   8  12
DOCKED: ENDBRANCH   7   8
DOCKED: ENDBRANCH   1   7
DOCKED: BRANCH   2  14
DOCKED: ATOM     14  O   UNL d   1     -13.474  14.165 -19.964 -0.01 +0.08    -0.278 OA
DOCKED: BRANCH  14  15
DOCKED: ATOM     15  P   UNL d   1     -14.834  13.912 -20.770 +0.01 -0.10    +0.473 P 
DOCKED: ATOM     16  O   UNL d   1     -14.707  13.650 -22.239 +0.00 +0.03    -0.228 OA
DOCKED: BRANCH  15  17
DOCKED: ATOM     17  O   UNL d   1     -15.530  12.711 -19.988 -0.01 +0.09    -0.303 OA
DOCKED: ATOM     18  H   UNL d   1     -15.345  12.761 -19.031 +0.01 -0.10    +0.222 HD
DOCKED: ENDBRANCH  15  17
DOCKED: BRANCH  15  19
DOCKED: ATOM     19  O   UNL d   1     -15.767  15.137 -20.370 +0.00 +0.04    -0.303 OA
DOCKED: ATOM     20  H   UNL d   1     -16.590  14.838 -19.943 +0.00 -0.03    +0.222 HD
DOCKED: ENDBRANCH  15  19
DOCKED: ENDBRANCH  14  15
DOCKED: ENDBRANCH   2  14
DOCKED: BRANCH   6  21
DOCKED: ATOM     21  O   UNL d   1      -9.500  12.538 -20.099 -0.03 +0.07    -0.278 OA
DOCKED: BRANCH  21  22
DOCKED: ATOM     22  P   UNL d   1      -9.146  11.260 -19.212 -0.11 -0.18    +0.473 P 
DOCKED: ATOM     23  O   UNL d   1      -7.709  10.900 -19.037 -0.14 +0.04    -0.228 OA
DOCKED: BRANCH  22  24
DOCKED: ATOM     24  O   UNL d   1      -9.924  11.577 -17.860 -0.13 +0.23    -0.303 OA
DOCKED: ATOM     25  H   UNL d   1      -9.306  12.061 -17.255 +0.02 -0.08    +0.222 HD
DOCKED: ENDBRANCH  22  24
DOCKED: BRANCH  22  26
DOCKED: ATOM     26  O   UNL d   1     -10.078  10.136 -19.874 -0.11 +0.15    -0.303 OA
DOCKED: ATOM     27  H   UNL d   1     -10.656  10.552 -20.545 +0.03 -0.10    +0.222 HD
DOCKED: ENDBRANCH  22  26
DOCKED: ENDBRANCH  21  22
DOCKED: ENDBRANCH   6  21
DOCKED: BRANCH   3  28
DOCKED: ATOM     28  O   UNL d   1     -13.819  14.601 -17.369 -0.02 +0.10    -0.278 OA
DOCKED: BRANCH  28  29
DOCKED: ATOM     29  P   UNL d   1     -15.146  13.999 -16.727 -0.01 -0.18    +0.473 P 
DOCKED: ATOM     30  O   UNL d   1     -15.458  14.459 -15.350 -0.01 +0.06    -0.228 OA
DOCKED: BRANCH  29  31
DOCKED: ATOM     31  O   UNL d   1     -16.202  14.369 -17.872 +0.00 +0.07    -0.303 OA
DOCKED: ATOM     32  H   UNL d   1     -15.720  14.460 -18.726 +0.01 -0.05    +0.222 HD
DOCKED: ENDBRANCH  29  31
DOCKED: BRANCH  29  33
DOCKED: ATOM     33  O   UNL d   1     -14.938  12.434 -16.934 -0.07 +0.24    -0.303 OA
DOCKED: ATOM     34  H   UNL d   1     -14.025  12.191 -16.642 -0.11 -0.30    +0.222 HD
DOCKED: ENDBRANCH  29  33
DOCKED: ENDBRANCH  28  29
DOCKED: ENDBRANCH   3  28
DOCKED: BRANCH   5  35
DOCKED: ATOM     35  O   UNL d   1      -9.412  15.106 -18.711 -0.01 +0.04    -0.278 OA
DOCKED: BRANCH  35  36
DOCKED: ATOM     36  P   UNL d   1      -7.841  14.947 -18.481 +0.00 -0.05    +0.473 P 
DOCKED: ATOM     37  O   UNL d   1      -7.168  16.100 -17.808 -0.00 +0.02    -0.228 OA
DOCKED: BRANCH  36  38
DOCKED: ATOM     38  O   UNL d   1      -7.768  13.580 -17.668 -0.10 +0.04    -0.303 OA
DOCKED: ATOM     39  H   UNL d   1      -8.167  12.863 -18.207 +0.04 -0.04    +0.222 HD
DOCKED: ENDBRANCH  36  38
DOCKED: BRANCH  36  40
DOCKED: ATOM     40  O   UNL d   1      -7.324  14.556 -19.934 -0.00 +0.02    -0.303 OA
DOCKED: ATOM     41  H   UNL d   1      -7.701  13.701 -20.237 +0.02 -0.02    +0.222 HD
DOCKED: ENDBRANCH  36  40
DOCKED: ENDBRANCH  35  36
DOCKED: ENDBRANCH   5  35
DOCKED: BRANCH   4  42
DOCKED: ATOM     42  O   UNL d   1     -11.133  14.876 -16.371 -0.03 +0.09    -0.278 OA
DOCKED: BRANCH  42  43
DOCKED: ATOM     43  P   UNL d   1     -10.918  13.623 -15.406 -0.13 -0.25    +0.473 P 
DOCKED: ATOM     44  O   UNL d   1     -11.812  12.448 -15.598 -0.15 +0.25    -0.228 OA
DOCKED: BRANCH  43  45
DOCKED: ATOM     45  O   UNL d   1      -9.371  13.302 -15.592 -0.76 +0.07    -0.303 OA
DOCKED: ATOM     46  H   UNL d   1      -9.145  13.160 -16.533 +0.03 -0.04    +0.222 HD
DOCKED: ENDBRANCH  43  45
DOCKED: BRANCH  43  47
DOCKED: ATOM     47  O   UNL d   1     -10.942  14.279 -13.944 -0.09 +0.12    -0.303 OA
DOCKED: ATOM     48  H   UNL d   1     -10.861  13.571 -13.272 -0.32 -0.14    +0.222 HD
DOCKED: ENDBRANCH  43  47
DOCKED: ENDBRANCH  42  43
DOCKED: ENDBRANCH   4  42
DOCKED: TORSDOF 24
DOCKED: TER
DOCKED: ENDMDL
________________________________________________________________________________


	BEGINNING GENETIC ALGORITHM DOCKING 34 of 100
Run: 34 Seed: 1829840022 760599290 [ Run 34 of 100 GA/GALS ]
Beginning LAMARCKIAN GENETIC ALGORITHM (LGA), with a maximum of 25000000 energy evaluations.

Final-Value: -17.329


	FINAL GENETIC ALGORITHM DOCKED STATE
	_______________________________________________


Detailed state:  trans -10.453 -11.019 2.298 quatxyzw -0.112096 0.740554 -0.214248 -0.626987 center 0.035 0.082 -0.065 ntor 24 -96.8273 22.6287 40.0218 -0.3294 30.2342 -125.7421 -18.6950 -89.5101 163.1942 -26.6903 40.2423 40.5179 180.0000 162.8524 1.8336 69.8516 180.0000 -79.7050 60.5621 7.8545 -43.7334 -2.4320 21.1310 -168.6403
State:	-10.453 -11.019   2.298  -0.144  0.951 -0.275 -102.344    -96.83   22.63   40.02   -0.33   30.23 -125.74  -18.69  -89.51  163.19  -26.69   40.24   40.52  180.00  162.85    1.83   69.85  180.00  -79.70   60.56    7.85  -43.73   -2.43   21.13 -168.64

DOCKED: MODEL       34
DOCKED: USER    Run = 34
DOCKED: USER    DPF = D:/Protein_go_brrr/autodock/final/mut_D99N/IHP/dock.dpf
DOCKED: USER  
DOCKED: USER    Estimated Free Energy of Binding    =   +3.67 kcal/mol  [=(1)+(2)+(3)-(4)]
DOCKED: USER    
DOCKED: USER    (1) Final Intermolecular Energy     =   -3.49 kcal/mol
DOCKED: USER        vdW + Hbond + desolv Energy     =   -3.00 kcal/mol
DOCKED: USER        Electrostatic Energy            =   -0.49 kcal/mol
DOCKED: USER    (2) Final Total Internal Energy     =  -13.84 kcal/mol
DOCKED: USER    (3) Torsional Free Energy           =   +7.16 kcal/mol
DOCKED: USER    (4) Unbound System's Energy  [=(2)] =  -13.84 kcal/mol
DOCKED: USER    
DOCKED: USER    
DOCKED: USER    NEWDPF move IHP_ideal_opt.pdbqt
DOCKED: USER    NEWDPF about 0.035000 0.082000 -0.065000
DOCKED: USER    NEWDPF tran0 -10.452523 -11.018786 2.298013
DOCKED: USER    NEWDPF quaternion0 -0.112096 0.740554 -0.214248 -0.626987
DOCKED: USER    NEWDPF axisangle0 -0.143892 0.950610 -0.275019 -102.343708
DOCKED: USER    NEWDPF quat0 -0.143892 0.950610 -0.275019 -102.343708
DOCKED: USER    NEWDPF dihe0 -96.83 22.63 40.02 -0.33 30.23 -125.74 -18.69 -89.51 163.19 -26.69 40.24 40.52 180.00 162.85 1.83 69.85 180.00 -79.70 60.56 7.85 -43.73 -2.43 21.13 -168.64 
DOCKED: USER  keepresnum = 1 
DOCKED: USER  
DOCKED: REMARK  24 active torsions:
DOCKED: REMARK  status: ('A' for Active; 'I' for Inactive)
DOCKED: REMARK    1  A    between atoms: C_1  and  O_7 
DOCKED: REMARK    2  A    between atoms: C_2  and  O_12 
DOCKED: REMARK    3  A    between atoms: C_3  and  O_17 
DOCKED: REMARK    4  A    between atoms: C_4  and  O_22 
DOCKED: REMARK    5  A    between atoms: C_5  and  O_27 
DOCKED: REMARK    6  A    between atoms: C_6  and  O_32 
DOCKED: REMARK    7  A    between atoms: O_7  and  P_8 
DOCKED: REMARK    8  A    between atoms: P_8  and  O_10 
DOCKED: REMARK    9  A    between atoms: P_8  and  O_11 
DOCKED: REMARK   10  A    between atoms: O_12  and  P_13 
DOCKED: REMARK   11  A    between atoms: P_13  and  O_15 
DOCKED: REMARK   12  A    between atoms: P_13  and  O_16 
DOCKED: REMARK   13  A    between atoms: O_17  and  P_18 
DOCKED: REMARK   14  A    between atoms: P_18  and  O_20 
DOCKED: REMARK   15  A    between atoms: P_18  and  O_21 
DOCKED: REMARK   16  A    between atoms: O_22  and  P_23 
DOCKED: REMARK   17  A    between atoms: P_23  and  O_25 
DOCKED: REMARK   18  A    between atoms: P_23  and  O_26 
DOCKED: REMARK   19  A    between atoms: O_27  and  P_28 
DOCKED: REMARK   20  A    between atoms: P_28  and  O_30 
DOCKED: REMARK   21  A    between atoms: P_28  and  O_31 
DOCKED: REMARK   22  A    between atoms: O_32  and  P_33 
DOCKED: REMARK   23  A    between atoms: P_33  and  O_35 
DOCKED: REMARK   24  A    between atoms: P_33  and  O_36 
DOCKED: USER                              x       y       z     vdW  Elec       q    Type
DOCKED: USER                           _______ _______ _______ _____ _____    ______ ____
DOCKED: ROOT
DOCKED: ATOM      1  C   UNL d   1     -10.007 -12.487   1.505 -0.00 -0.04    +0.194 C 
DOCKED: ATOM      2  C   UNL d   1     -10.215 -12.590   3.017 +0.00 -0.01    +0.194 C 
DOCKED: ATOM      3  C   UNL d   1      -9.585 -11.407   3.756 -0.01 -0.00    +0.194 C 
DOCKED: ATOM      4  C   UNL d   1     -10.020 -10.052   3.204 -0.03 -0.00    +0.194 C 
DOCKED: ATOM      5  C   UNL d   1      -9.938  -9.945   1.687 -0.05 -0.04    +0.194 C 
DOCKED: ATOM      6  C   UNL d   1     -10.513 -11.155   0.949 -0.02 -0.05    +0.194 C 
DOCKED: ENDROOT
DOCKED: BRANCH   1   7
DOCKED: ATOM      7  O   UNL d   1     -10.766 -13.525   0.879 -0.00 +0.05    -0.278 OA
DOCKED: BRANCH   7   8
DOCKED: ATOM      8  P   UNL d   1     -10.402 -15.043   1.222 +0.01 -0.05    +0.473 P 
DOCKED: ATOM      9  O   UNL d   1     -10.180 -15.920   0.040 +0.00 +0.03    -0.228 OA
DOCKED: BRANCH   8  10
DOCKED: ATOM     10  O   UNL d   1      -9.124 -14.930   2.170 +0.00 +0.03    -0.303 OA
DOCKED: ATOM     11  H   UNL d   1      -9.383 -15.115   3.091 +0.00 -0.01    +0.222 HD
DOCKED: ENDBRANCH   8  10
DOCKED: BRANCH   8  12
DOCKED: ATOM     12  O   UNL d   1     -11.528 -15.518   2.237 +0.00 +0.01    -0.303 OA
DOCKED: ATOM     13  H   UNL d   1     -11.963 -14.772   2.708 +0.00 -0.01    +0.222 HD
DOCKED: ENDBRANCH   8  12
DOCKED: ENDBRANCH   7   8
DOCKED: ENDBRANCH   1   7
DOCKED: BRANCH   2  14
DOCKED: ATOM     14  O   UNL d   1     -11.621 -12.606   3.295 +0.00 +0.01    -0.278 OA
DOCKED: BRANCH  14  15
DOCKED: ATOM     15  P   UNL d   1     -12.113 -13.616   4.436 +0.00 +0.01    +0.473 P 
DOCKED: ATOM     16  O   UNL d   1     -13.415 -14.315   4.199 +0.00 -0.00    -0.228 OA
DOCKED: BRANCH  15  17
DOCKED: ATOM     17  O   UNL d   1     -10.893 -14.625   4.613 +0.00 -0.00    -0.303 OA
DOCKED: ATOM     18  H   UNL d   1     -10.659 -15.046   3.763 +0.00 -0.00    +0.222 HD
DOCKED: ENDBRANCH  15  17
DOCKED: BRANCH  15  19
DOCKED: ATOM     19  O   UNL d   1     -12.024 -12.770   5.780 +0.00 -0.02    -0.303 OA
DOCKED: ATOM     20  H   UNL d   1     -11.115 -12.464   5.955 +0.01 +0.02    +0.222 HD
DOCKED: ENDBRANCH  15  19
DOCKED: ENDBRANCH  14  15
DOCKED: ENDBRANCH   2  14
DOCKED: BRANCH   6  21
DOCKED: ATOM     21  O   UNL d   1     -10.061 -11.067  -0.401 -0.08 +0.19    -0.278 OA
DOCKED: BRANCH  21  22
DOCKED: ATOM     22  P   UNL d   1     -11.000 -11.580  -1.585 -0.04 -0.29    +0.473 P 
DOCKED: ATOM     23  O   UNL d   1     -12.477 -11.455  -1.418 -0.01 +0.06    -0.228 OA
DOCKED: BRANCH  22  24
DOCKED: ATOM     24  O   UNL d   1     -10.401 -10.799  -2.836 -0.02 +0.42    -0.303 OA
DOCKED: ATOM     25  H   UNL d   1     -10.114  -9.901  -2.530 -0.41 -0.49    +0.222 HD
DOCKED: ENDBRANCH  22  24
DOCKED: BRANCH  22  26
DOCKED: ATOM     26  O   UNL d   1     -10.442 -13.064  -1.823 -0.04 +0.16    -0.303 OA
DOCKED: ATOM     27  H   UNL d   1     -10.544 -13.582  -0.999 +0.01 -0.08    +0.222 HD
DOCKED: ENDBRANCH  22  26
DOCKED: ENDBRANCH  21  22
DOCKED: ENDBRANCH   6  21
DOCKED: BRANCH   3  28
DOCKED: ATOM     28  O   UNL d   1     -10.059 -11.439   5.097 -0.01 -0.02    -0.278 OA
DOCKED: BRANCH  28  29
DOCKED: ATOM     29  P   UNL d   1      -9.085 -11.858   6.285 -0.02 +0.09    +0.473 P 
DOCKED: ATOM     30  O   UNL d   1      -7.725 -11.262   6.239 -0.09 -0.07    -0.228 OA
DOCKED: BRANCH  29  31
DOCKED: ATOM     31  O   UNL d   1     -10.001 -11.481   7.542 -0.02 -0.07    -0.303 OA
DOCKED: ATOM     32  H   UNL d   1     -10.944 -11.634   7.301 +0.01 +0.03    +0.222 HD
DOCKED: ENDBRANCH  29  31
DOCKED: BRANCH  29  33
DOCKED: ATOM     33  O   UNL d   1      -9.176 -13.447   6.247 -0.00 -0.04    -0.303 OA
DOCKED: ATOM     34  H   UNL d   1     -10.072 -13.710   5.922 +0.01 +0.02    +0.222 HD
DOCKED: ENDBRANCH  29  33
DOCKED: ENDBRANCH  28  29
DOCKED: ENDBRANCH   3  28
DOCKED: BRANCH   5  35
DOCKED: ATOM     35  O   UNL d   1     -10.740  -8.819   1.335 -0.04 +0.03    -0.278 OA
DOCKED: BRANCH  35  36
DOCKED: ATOM     36  P   UNL d   1     -10.411  -7.976   0.021 -0.08 -0.15    +0.473 P 
DOCKED: ATOM     37  O   UNL d   1     -10.454  -6.490   0.181 -0.15 +0.00    -0.228 OA
DOCKED: BRANCH  36  38
DOCKED: ATOM     38  O   UNL d   1      -8.982  -8.550  -0.385 -0.21 +0.29    -0.303 OA
DOCKED: ATOM     39  H   UNL d   1      -9.100  -9.284  -1.025 -0.47 -0.42    +0.222 HD
DOCKED: ENDBRANCH  36  38
DOCKED: BRANCH  36  40
DOCKED: ATOM     40  O   UNL d   1     -11.398  -8.616  -1.049 -0.05 +0.13    -0.303 OA
DOCKED: ATOM     41  H   UNL d   1     -11.145  -9.540  -1.272 +0.01 -0.14    +0.222 HD
DOCKED: ENDBRANCH  36  40
DOCKED: ENDBRANCH  35  36
DOCKED: ENDBRANCH   5  35
DOCKED: BRANCH   4  42
DOCKED: ATOM     42  O   UNL d   1      -9.122  -9.077   3.745 -0.09 -0.02    -0.278 OA
DOCKED: BRANCH  42  43
DOCKED: ATOM     43  P   UNL d   1      -7.687  -8.894   3.072 -0.12 -0.00    +0.473 P 
DOCKED: ATOM     44  O   UNL d   1      -7.031 -10.108   2.511 -0.13 +0.02    -0.228 OA
DOCKED: BRANCH  43  45
DOCKED: ATOM     45  O   UNL d   1      -7.946  -7.742   2.005 -0.28 +0.03    -0.303 OA
DOCKED: ATOM     46  H   UNL d   1      -8.853  -7.788   1.642 +0.09 -0.03    +0.222 HD
DOCKED: ENDBRANCH  43  45
DOCKED: BRANCH  43  47
DOCKED: ATOM     47  O   UNL d   1      -6.852  -8.114   4.197 -0.37 +0.00    -0.303 OA
DOCKED: ATOM     48  H   UNL d   1      -6.285  -7.440   3.768 -0.31 -0.04    +0.222 HD
DOCKED: ENDBRANCH  43  47
DOCKED: ENDBRANCH  42  43
DOCKED: ENDBRANCH   4  42
DOCKED: TORSDOF 24
DOCKED: TER
DOCKED: ENDMDL
________________________________________________________________________________


	BEGINNING GENETIC ALGORITHM DOCKING 35 of 100
Run: 35 Seed: 69117435 1549669777 [ Run 35 of 100 GA/GALS ]
Beginning LAMARCKIAN GENETIC ALGORITHM (LGA), with a maximum of 25000000 energy evaluations.

Final-Value: -16.865


	FINAL GENETIC ALGORITHM DOCKED STATE
	_______________________________________________


Detailed state:  trans 0.981 17.067 14.675 quatxyzw -0.781361 0.399478 -0.304963 -0.369987 center 0.035 0.082 -0.065 ntor 24 -147.5435 -55.3699 136.8426 -1.4269 -3.2301 -167.3069 -23.2095 -122.7467 48.3695 104.7177 -159.2217 -117.7156 86.9979 -176.6291 -52.7316 122.8320 -78.9861 -13.6315 -43.4229 7.8358 22.7123 -2.8896 -180.0000 164.9624
State:	  0.981  17.067  14.675  -0.841  0.430 -0.328 -136.570   -147.54  -55.37  136.84   -1.43   -3.23 -167.31  -23.21 -122.75   48.37  104.72 -159.22 -117.72   87.00 -176.63  -52.73  122.83  -78.99  -13.63  -43.42    7.84   22.71   -2.89 -180.00  164.96

DOCKED: MODEL       35
DOCKED: USER    Run = 35
DOCKED: USER    DPF = D:/Protein_go_brrr/autodock/final/mut_D99N/IHP/dock.dpf
DOCKED: USER  
DOCKED: USER    Estimated Free Energy of Binding    =   +3.36 kcal/mol  [=(1)+(2)+(3)-(4)]
DOCKED: USER    
DOCKED: USER    (1) Final Intermolecular Energy     =   -3.80 kcal/mol
DOCKED: USER        vdW + Hbond + desolv Energy     =   -3.77 kcal/mol
DOCKED: USER        Electrostatic Energy            =   -0.03 kcal/mol
DOCKED: USER    (2) Final Total Internal Energy     =  -13.07 kcal/mol
DOCKED: USER    (3) Torsional Free Energy           =   +7.16 kcal/mol
DOCKED: USER    (4) Unbound System's Energy  [=(2)] =  -13.07 kcal/mol
DOCKED: USER    
DOCKED: USER    
DOCKED: USER    NEWDPF move IHP_ideal_opt.pdbqt
DOCKED: USER    NEWDPF about 0.035000 0.082000 -0.065000
DOCKED: USER    NEWDPF tran0 0.980630 17.066783 14.675013
DOCKED: USER    NEWDPF quaternion0 -0.781361 0.399478 -0.304963 -0.369987
DOCKED: USER    NEWDPF axisangle0 -0.841044 0.429991 -0.328257 -136.570326
DOCKED: USER    NEWDPF quat0 -0.841044 0.429991 -0.328257 -136.570326
DOCKED: USER    NEWDPF dihe0 -147.54 -55.37 136.84 -1.43 -3.23 -167.31 -23.21 -122.75 48.37 104.72 -159.22 -117.72 87.00 -176.63 -52.73 122.83 -78.99 -13.63 -43.42 7.84 22.71 -2.89 -180.00 164.96 
DOCKED: USER  keepresnum = 1 
DOCKED: USER  
DOCKED: REMARK  24 active torsions:
DOCKED: REMARK  status: ('A' for Active; 'I' for Inactive)
DOCKED: REMARK    1  A    between atoms: C_1  and  O_7 
DOCKED: REMARK    2  A    between atoms: C_2  and  O_12 
DOCKED: REMARK    3  A    between atoms: C_3  and  O_17 
DOCKED: REMARK    4  A    between atoms: C_4  and  O_22 
DOCKED: REMARK    5  A    between atoms: C_5  and  O_27 
DOCKED: REMARK    6  A    between atoms: C_6  and  O_32 
DOCKED: REMARK    7  A    between atoms: O_7  and  P_8 
DOCKED: REMARK    8  A    between atoms: P_8  and  O_10 
DOCKED: REMARK    9  A    between atoms: P_8  and  O_11 
DOCKED: REMARK   10  A    between atoms: O_12  and  P_13 
DOCKED: REMARK   11  A    between atoms: P_13  and  O_15 
DOCKED: REMARK   12  A    between atoms: P_13  and  O_16 
DOCKED: REMARK   13  A    between atoms: O_17  and  P_18 
DOCKED: REMARK   14  A    between atoms: P_18  and  O_20 
DOCKED: REMARK   15  A    between atoms: P_18  and  O_21 
DOCKED: REMARK   16  A    between atoms: O_22  and  P_23 
DOCKED: REMARK   17  A    between atoms: P_23  and  O_25 
DOCKED: REMARK   18  A    between atoms: P_23  and  O_26 
DOCKED: REMARK   19  A    between atoms: O_27  and  P_28 
DOCKED: REMARK   20  A    between atoms: P_28  and  O_30 
DOCKED: REMARK   21  A    between atoms: P_28  and  O_31 
DOCKED: REMARK   22  A    between atoms: O_32  and  P_33 
DOCKED: REMARK   23  A    between atoms: P_33  and  O_35 
DOCKED: REMARK   24  A    between atoms: P_33  and  O_36 
DOCKED: USER                              x       y       z     vdW  Elec       q    Type
DOCKED: USER                           _______ _______ _______ _____ _____    ______ ____
DOCKED: ROOT
DOCKED: ATOM      1  C   UNL d   1       2.565  16.628  15.204 -0.07 -0.03    +0.194 C 
DOCKED: ATOM      2  C   UNL d   1       1.983  17.892  15.838 -0.03 -0.02    +0.194 C 
DOCKED: ATOM      3  C   UNL d   1       1.285  18.776  14.803 -0.01 -0.01    +0.194 C 
DOCKED: ATOM      4  C   UNL d   1       0.254  18.022  13.967 -0.03 -0.02    +0.194 C 
DOCKED: ATOM      5  C   UNL d   1       0.756  16.697  13.408 -0.08 -0.02    +0.194 C 
DOCKED: ATOM      6  C   UNL d   1       1.508  15.840  14.429 -0.11 -0.04    +0.194 C 
DOCKED: ENDROOT
DOCKED: BRANCH   1   7
DOCKED: ATOM      7  O   UNL d   1       3.043  15.782  16.253 -0.10 +0.06    -0.278 OA
DOCKED: BRANCH   7   8
DOCKED: ATOM      8  P   UNL d   1       3.998  14.561  15.868 -0.14 -0.06    +0.473 P 
DOCKED: ATOM      9  O   UNL d   1       5.145  14.342  16.791 -0.13 +0.01    -0.228 OA
DOCKED: BRANCH   8  10
DOCKED: ATOM     10  O   UNL d   1       3.012  13.310  15.784 -0.17 +0.06    -0.303 OA
DOCKED: ATOM     11  H   UNL d   1       2.285  13.508  15.164 -0.20 -0.08    +0.222 HD
DOCKED: ENDBRANCH   8  10
DOCKED: BRANCH   8  12
DOCKED: ATOM     12  O   UNL d   1       4.372  14.794  14.342 -0.07 +0.03    -0.303 OA
DOCKED: ATOM     13  H   UNL d   1       3.845  14.236  13.726 +0.09 -0.02    +0.222 HD
DOCKED: ENDBRANCH   8  12
DOCKED: ENDBRANCH   7   8
DOCKED: ENDBRANCH   1   7
DOCKED: BRANCH   2  14
DOCKED: ATOM     14  O   UNL d   1       1.027  17.516  16.837 -0.05 +0.04    -0.278 OA
DOCKED: BRANCH  14  15
DOCKED: ATOM     15  P   UNL d   1       1.036  18.366  18.194 -0.01 -0.05    +0.473 P 
DOCKED: ATOM     16  O   UNL d   1       1.280  17.608  19.461 -0.03 +0.03    -0.228 OA
DOCKED: BRANCH  15  17
DOCKED: ATOM     17  O   UNL d   1       2.126  19.499  17.934 -0.00 +0.02    -0.303 OA
DOCKED: ATOM     18  H   UNL d   1       2.054  19.854  17.027 +0.01 -0.01    +0.222 HD
DOCKED: ENDBRANCH  15  17
DOCKED: BRANCH  15  19
DOCKED: ATOM     19  O   UNL d   1      -0.315  19.205  18.146 -0.01 +0.02    -0.303 OA
DOCKED: ATOM     20  H   UNL d   1      -0.340  19.804  17.377 +0.01 -0.02    +0.222 HD
DOCKED: ENDBRANCH  15  19
DOCKED: ENDBRANCH  14  15
DOCKED: ENDBRANCH   2  14
DOCKED: BRANCH   6  21
DOCKED: ATOM     21  O   UNL d   1       2.195  14.830  13.693 -0.12 +0.05    -0.278 OA
DOCKED: BRANCH  21  22
DOCKED: ATOM     22  P   UNL d   1       1.401  13.544  13.184 -0.25 -0.08    +0.473 P 
DOCKED: ATOM     23  O   UNL d   1       0.143  13.167  13.890 -0.80 +0.09    -0.228 OA
DOCKED: BRANCH  22  24
DOCKED: ATOM     24  O   UNL d   1       1.228  13.860  11.634 -0.25 +0.03    -0.303 OA
DOCKED: ATOM     25  H   UNL d   1       0.592  14.614  11.543 +0.11 -0.02    +0.222 HD
DOCKED: ENDBRANCH  22  24
DOCKED: BRANCH  22  26
DOCKED: ATOM     26  O   UNL d   1       2.558  12.433  13.169 -0.33 +0.04    -0.303 OA
DOCKED: ATOM     27  H   UNL d   1       3.302  12.735  13.728 +0.12 -0.02    +0.222 HD
DOCKED: ENDBRANCH  22  26
DOCKED: ENDBRANCH  21  22
DOCKED: ENDBRANCH   6  21
DOCKED: BRANCH   3  28
DOCKED: ATOM     28  O   UNL d   1       0.548  19.765  15.510 -0.00 +0.02    -0.278 OA
DOCKED: BRANCH  28  29
DOCKED: ATOM     29  P   UNL d   1       1.039  21.279  15.523 +0.00 -0.02    +0.473 P 
DOCKED: ATOM     30  O   UNL d   1       0.391  22.172  14.528 +0.00 +0.01    -0.228 OA
DOCKED: BRANCH  29  31
DOCKED: ATOM     31  O   UNL d   1       0.818  21.632  17.068 -0.00 +0.01    -0.303 OA
DOCKED: ATOM     32  H   UNL d   1       0.911  20.805  17.595 +0.00 -0.01    +0.222 HD
DOCKED: ENDBRANCH  29  31
DOCKED: BRANCH  29  33
DOCKED: ATOM     33  O   UNL d   1       2.620  21.118  15.422 -0.00 +0.01    -0.303 OA
DOCKED: ATOM     34  H   UNL d   1       2.947  20.649  16.228 +0.00 -0.01    +0.222 HD
DOCKED: ENDBRANCH  29  33
DOCKED: ENDBRANCH  28  29
DOCKED: ENDBRANCH   3  28
DOCKED: BRANCH   5  35
DOCKED: ATOM     35  O   UNL d   1      -0.411  15.970  13.029 -0.11 +0.04    -0.278 OA
DOCKED: BRANCH  35  36
DOCKED: ATOM     36  P   UNL d   1      -1.631  15.820  14.045 -0.14 -0.09    +0.473 P 
DOCKED: ATOM     37  O   UNL d   1      -1.258  15.710  15.489 -0.17 +0.04    -0.228 OA
DOCKED: BRANCH  36  38
DOCKED: ATOM     38  O   UNL d   1      -2.510  17.100  13.690 -0.03 +0.04    -0.303 OA
DOCKED: ATOM     39  H   UNL d   1      -1.940  17.769  13.252 +0.04 -0.02    +0.222 HD
DOCKED: ENDBRANCH  36  38
DOCKED: BRANCH  36  40
DOCKED: ATOM     40  O   UNL d   1      -2.449  14.609  13.417 -0.16 +0.14    -0.303 OA
DOCKED: ATOM     41  H   UNL d   1      -1.924  13.778  13.413 -0.48 -0.15    +0.222 HD
DOCKED: ENDBRANCH  36  40
DOCKED: ENDBRANCH  35  36
DOCKED: ENDBRANCH   5  35
DOCKED: BRANCH   4  42
DOCKED: ATOM     42  O   UNL d   1      -0.063  18.857  12.848 -0.01 +0.02    -0.278 OA
DOCKED: BRANCH  42  43
DOCKED: ATOM     43  P   UNL d   1       1.123  19.398  11.928 -0.01 -0.01    +0.473 P 
DOCKED: ATOM     44  O   UNL d   1       2.319  18.526  11.768 -0.03 +0.01    -0.228 OA
DOCKED: BRANCH  43  45
DOCKED: ATOM     45  O   UNL d   1       0.379  19.740  10.564 -0.02 +0.00    -0.303 OA
DOCKED: ATOM     46  H   UNL d   1       0.571  20.653  10.270 +0.01 -0.00    +0.222 HD
DOCKED: ENDBRANCH  43  45
DOCKED: BRANCH  43  47
DOCKED: ATOM     47  O   UNL d   1       1.407  20.860  12.520 -0.00 +0.01    -0.303 OA
DOCKED: ATOM     48  H   UNL d   1       1.685  20.781  13.456 +0.00 -0.01    +0.222 HD
DOCKED: ENDBRANCH  43  47
DOCKED: ENDBRANCH  42  43
DOCKED: ENDBRANCH   4  42
DOCKED: TORSDOF 24
DOCKED: TER
DOCKED: ENDMDL
________________________________________________________________________________


	BEGINNING GENETIC ALGORITHM DOCKING 36 of 100
Run: 36 Seed: 1635913372 1741061317 [ Run 36 of 100 GA/GALS ]
Beginning LAMARCKIAN GENETIC ALGORITHM (LGA), with a maximum of 25000000 energy evaluations.

Final-Value: -17.651


	FINAL GENETIC ALGORITHM DOCKED STATE
	_______________________________________________


Detailed state:  trans 6.684 14.361 -3.914 quatxyzw 0.464058 0.093060 0.870613 0.134250 center 0.035 0.082 -0.065 ntor 24 174.8867 -7.8149 61.0861 107.7958 0.1348 -165.3996 -40.7401 90.9225 142.5617 48.6972 -125.6719 -180.0000 17.5073 103.2585 175.5372 -61.1558 82.2931 160.8753 -129.4136 -19.3338 -179.7357 -1.7209 12.9581 179.4485
State:	  6.684  14.361  -3.914   0.468  0.094  0.879 164.569    174.89   -7.81   61.09  107.80    0.13 -165.40  -40.74   90.92  142.56   48.70 -125.67 -180.00   17.51  103.26  175.54  -61.16   82.29  160.88 -129.41  -19.33 -179.74   -1.72   12.96  179.45

DOCKED: MODEL       36
DOCKED: USER    Run = 36
DOCKED: USER    DPF = D:/Protein_go_brrr/autodock/final/mut_D99N/IHP/dock.dpf
DOCKED: USER  
DOCKED: USER    Estimated Free Energy of Binding    =   +3.43 kcal/mol  [=(1)+(2)+(3)-(4)]
DOCKED: USER    
DOCKED: USER    (1) Final Intermolecular Energy     =   -3.73 kcal/mol
DOCKED: USER        vdW + Hbond + desolv Energy     =   -3.56 kcal/mol
DOCKED: USER        Electrostatic Energy            =   -0.17 kcal/mol
DOCKED: USER    (2) Final Total Internal Energy     =  -13.92 kcal/mol
DOCKED: USER    (3) Torsional Free Energy           =   +7.16 kcal/mol
DOCKED: USER    (4) Unbound System's Energy  [=(2)] =  -13.92 kcal/mol
DOCKED: USER    
DOCKED: USER    
DOCKED: USER    NEWDPF move IHP_ideal_opt.pdbqt
DOCKED: USER    NEWDPF about 0.035000 0.082000 -0.065000
DOCKED: USER    NEWDPF tran0 6.683532 14.361036 -3.913626
DOCKED: USER    NEWDPF quaternion0 0.464058 0.093060 0.870613 0.134250
DOCKED: USER    NEWDPF axisangle0 0.468298 0.093910 0.878566 164.569440
DOCKED: USER    NEWDPF quat0 0.468298 0.093910 0.878566 164.569440
DOCKED: USER    NEWDPF dihe0 174.89 -7.81 61.09 107.80 0.13 -165.40 -40.74 90.92 142.56 48.70 -125.67 -180.00 17.51 103.26 175.54 -61.16 82.29 160.88 -129.41 -19.33 -179.74 -1.72 12.96 179.45 
DOCKED: USER  keepresnum = 1 
DOCKED: USER  
DOCKED: REMARK  24 active torsions:
DOCKED: REMARK  status: ('A' for Active; 'I' for Inactive)
DOCKED: REMARK    1  A    between atoms: C_1  and  O_7 
DOCKED: REMARK    2  A    between atoms: C_2  and  O_12 
DOCKED: REMARK    3  A    between atoms: C_3  and  O_17 
DOCKED: REMARK    4  A    between atoms: C_4  and  O_22 
DOCKED: REMARK    5  A    between atoms: C_5  and  O_27 
DOCKED: REMARK    6  A    between atoms: C_6  and  O_32 
DOCKED: REMARK    7  A    between atoms: O_7  and  P_8 
DOCKED: REMARK    8  A    between atoms: P_8  and  O_10 
DOCKED: REMARK    9  A    between atoms: P_8  and  O_11 
DOCKED: REMARK   10  A    between atoms: O_12  and  P_13 
DOCKED: REMARK   11  A    between atoms: P_13  and  O_15 
DOCKED: REMARK   12  A    between atoms: P_13  and  O_16 
DOCKED: REMARK   13  A    between atoms: O_17  and  P_18 
DOCKED: REMARK   14  A    between atoms: P_18  and  O_20 
DOCKED: REMARK   15  A    between atoms: P_18  and  O_21 
DOCKED: REMARK   16  A    between atoms: O_22  and  P_23 
DOCKED: REMARK   17  A    between atoms: P_23  and  O_25 
DOCKED: REMARK   18  A    between atoms: P_23  and  O_26 
DOCKED: REMARK   19  A    between atoms: O_27  and  P_28 
DOCKED: REMARK   20  A    between atoms: P_28  and  O_30 
DOCKED: REMARK   21  A    between atoms: P_28  and  O_31 
DOCKED: REMARK   22  A    between atoms: O_32  and  P_33 
DOCKED: REMARK   23  A    between atoms: P_33  and  O_35 
DOCKED: REMARK   24  A    between atoms: P_33  and  O_36 
DOCKED: USER                              x       y       z     vdW  Elec       q    Type
DOCKED: USER                           _______ _______ _______ _____ _____    ______ ____
DOCKED: ROOT
DOCKED: ATOM      1  C   UNL d   1       6.350  15.244  -2.466 -0.05 +0.01    +0.194 C 
DOCKED: ATOM      2  C   UNL d   1       6.470  16.083  -3.740 -0.01 +0.01    +0.194 C 
DOCKED: ATOM      3  C   UNL d   1       7.648  15.634  -4.606 +0.01 +0.01    +0.194 C 
DOCKED: ATOM      4  C   UNL d   1       7.642  14.136  -4.901 -0.03 +0.04    +0.194 C 
DOCKED: ATOM      5  C   UNL d   1       7.411  13.263  -3.674 -0.07 +0.06    +0.194 C 
DOCKED: ATOM      6  C   UNL d   1       6.271  13.748  -2.775 -0.12 +0.03    +0.194 C 
DOCKED: ENDROOT
DOCKED: BRANCH   1   7
DOCKED: ATOM      7  O   UNL d   1       5.137  15.607  -1.805 -0.07 -0.01    -0.278 OA
DOCKED: BRANCH   7   8
DOCKED: ATOM      8  P   UNL d   1       3.923  14.569  -1.821 -0.17 -0.00    +0.473 P 
DOCKED: ATOM      9  O   UNL d   1       4.136  13.336  -1.016 -0.32 -0.01    -0.228 OA
DOCKED: BRANCH   8  10
DOCKED: ATOM     10  O   UNL d   1       2.671  15.429  -1.332 -0.16 -0.00    -0.303 OA
DOCKED: ATOM     11  H   UNL d   1       2.877  16.380  -1.410 +0.06 +0.00    +0.222 HD
DOCKED: ENDBRANCH   8  10
DOCKED: BRANCH   8  12
DOCKED: ATOM     12  O   UNL d   1       3.592  14.345  -3.359 -0.17 +0.06    -0.303 OA
DOCKED: ATOM     13  H   UNL d   1       3.439  15.186  -3.847 +0.06 -0.04    +0.222 HD
DOCKED: ENDBRANCH   8  12
DOCKED: ENDBRANCH   7   8
DOCKED: ENDBRANCH   1   7
DOCKED: BRANCH   2  14
DOCKED: ATOM     14  O   UNL d   1       5.264  15.947  -4.503 -0.02 +0.00    -0.278 OA
DOCKED: BRANCH  14  15
DOCKED: ATOM     15  P   UNL d   1       4.344  17.252  -4.625 +0.01 -0.01    +0.473 P 
DOCKED: ATOM     16  O   UNL d   1       3.383  17.291  -5.772 -0.01 +0.01    -0.228 OA
DOCKED: BRANCH  15  17
DOCKED: ATOM     17  O   UNL d   1       3.620  17.350  -3.209 -0.01 +0.00    -0.303 OA
DOCKED: ATOM     18  H   UNL d   1       3.430  16.462  -2.850 +0.05 -0.01    +0.222 HD
DOCKED: ENDBRANCH  15  17
DOCKED: BRANCH  15  19
DOCKED: ATOM     19  O   UNL d   1       5.367  18.468  -4.546 +0.00 -0.00    -0.303 OA
DOCKED: ATOM     20  H   UNL d   1       6.127  18.339  -5.143 +0.00 +0.00    +0.222 HD
DOCKED: ENDBRANCH  15  19
DOCKED: ENDBRANCH  14  15
DOCKED: ENDBRANCH   2  14
DOCKED: BRANCH   6  21
DOCKED: ATOM     21  O   UNL d   1       6.403  13.058  -1.534 -0.17 -0.05    -0.278 OA
DOCKED: BRANCH  21  22
DOCKED: ATOM     22  P   UNL d   1       7.502  13.529  -0.478 -0.09 +0.08    +0.473 P 
DOCKED: ATOM     23  O   UNL d   1       8.026  12.523   0.490 -0.45 -0.08    -0.228 OA
DOCKED: BRANCH  22  24
DOCKED: ATOM     24  O   UNL d   1       8.603  14.182  -1.424 -0.02 -0.03    -0.303 OA
DOCKED: ATOM     25  H   UNL d   1       8.995  13.463  -1.983 +0.03 +0.03    +0.222 HD
DOCKED: ENDBRANCH  22  24
DOCKED: BRANCH  22  26
DOCKED: ATOM     26  O   UNL d   1       6.805  14.824   0.161 -0.12 -0.02    -0.303 OA
DOCKED: ATOM     27  H   UNL d   1       5.840  14.781   0.002 +0.07 +0.02    +0.222 HD
DOCKED: ENDBRANCH  22  26
DOCKED: ENDBRANCH  21  22
DOCKED: ENDBRANCH   6  21
DOCKED: BRANCH   3  28
DOCKED: ATOM     28  O   UNL d   1       7.515  16.268  -5.872 +0.00 -0.01    -0.278 OA
DOCKED: BRANCH  28  29
DOCKED: ATOM     29  P   UNL d   1       8.514  17.434  -6.296 +0.01 +0.02    +0.473 P 
DOCKED: ATOM     30  O   UNL d   1       8.121  18.801  -5.869 +0.00 -0.00    -0.228 OA
DOCKED: BRANCH  29  31
DOCKED: ATOM     31  O   UNL d   1       9.885  16.855  -5.709 +0.00 -0.01    -0.303 OA
DOCKED: ATOM     32  H   UNL d   1       9.741  15.919  -5.439 +0.00 +0.01    +0.222 HD
DOCKED: ENDBRANCH  29  31
DOCKED: BRANCH  29  33
DOCKED: ATOM     33  O   UNL d   1       8.670  17.187  -7.862 +0.00 -0.01    -0.303 OA
DOCKED: ATOM     34  H   UNL d   1       8.840  18.052  -8.308 +0.00 +0.01    +0.222 HD
DOCKED: ENDBRANCH  29  33
DOCKED: ENDBRANCH  28  29
DOCKED: ENDBRANCH   3  28
DOCKED: BRANCH   5  35
DOCKED: ATOM     35  O   UNL d   1       7.034  11.982  -4.175 -0.57 -0.25    -0.278 OA
DOCKED: BRANCH  35  36
DOCKED: ATOM     36  P   UNL d   1       7.515  10.655  -3.434 -0.12 +0.30    +0.473 P 
DOCKED: ATOM     37  O   UNL d   1       6.431   9.692  -3.066 -0.69 -0.17    -0.228 OA
DOCKED: BRANCH  36  38
DOCKED: ATOM     38  O   UNL d   1       8.583  10.075  -4.464 -0.51 -0.19    -0.303 OA
DOCKED: ATOM     39  H   UNL d   1       9.390  10.632  -4.437 +0.04 +0.08    +0.222 HD
DOCKED: ENDBRANCH  36  38
DOCKED: BRANCH  36  40
DOCKED: ATOM     40  O   UNL d   1       8.403  11.231  -2.247 -0.09 -0.09    -0.303 OA
DOCKED: ATOM     41  H   UNL d   1       8.346  12.211  -2.192 +0.05 +0.05    +0.222 HD
DOCKED: ENDBRANCH  36  40
DOCKED: ENDBRANCH  35  36
DOCKED: ENDBRANCH   5  35
DOCKED: BRANCH   4  42
DOCKED: ATOM     42  O   UNL d   1       8.938  13.808  -5.412 -0.00 -0.05    -0.278 OA
DOCKED: BRANCH  42  43
DOCKED: ATOM     43  P   UNL d   1      10.195  13.885  -4.433 +0.02 +0.05    +0.473 P 
DOCKED: ATOM     44  O   UNL d   1      11.528  14.144  -5.046 +0.00 -0.02    -0.228 OA
DOCKED: BRANCH  43  45
DOCKED: ATOM     45  O   UNL d   1       9.744  14.981  -3.371 +0.01 -0.02    -0.303 OA
DOCKED: ATOM     46  H   UNL d   1      10.277  14.927  -2.552 +0.01 +0.01    +0.222 HD
DOCKED: ENDBRANCH  43  45
DOCKED: BRANCH  43  47
DOCKED: ATOM     47  O   UNL d   1      10.078  12.535  -3.579 +0.01 -0.05    -0.303 OA
DOCKED: ATOM     48  H   UNL d   1       9.280  12.042  -3.862 +0.03 +0.06    +0.222 HD
DOCKED: ENDBRANCH  43  47
DOCKED: ENDBRANCH  42  43
DOCKED: ENDBRANCH   4  42
DOCKED: TORSDOF 24
DOCKED: TER
DOCKED: ENDMDL
________________________________________________________________________________


	BEGINNING GENETIC ALGORITHM DOCKING 37 of 100
Run: 37 Seed: 207801796 759771559 [ Run 37 of 100 GA/GALS ]
Beginning LAMARCKIAN GENETIC ALGORITHM (LGA), with a maximum of 25000000 energy evaluations.

Final-Value: -18.564


	FINAL GENETIC ALGORITHM DOCKED STATE
	_______________________________________________


Detailed state:  trans 20.689 -12.739 7.264 quatxyzw -0.979883 -0.022447 -0.038702 0.194492 center 0.035 0.082 -0.065 ntor 24 88.6146 143.5622 103.6579 92.6883 118.4203 83.9628 11.0657 -167.3970 92.0157 -17.3436 -167.6238 -83.5269 -74.7278 97.1667 -179.8895 -92.9875 44.2951 -38.4891 -145.2956 -6.8655 16.5113 -11.6619 -170.5674 153.3024
State:	 20.689 -12.739   7.264  -0.999 -0.023 -0.039 157.570     88.61  143.56  103.66   92.69  118.42   83.96   11.07 -167.40   92.02  -17.34 -167.62  -83.53  -74.73   97.17 -179.89  -92.99   44.30  -38.49 -145.30   -6.87   16.51  -11.66 -170.57  153.30

DOCKED: MODEL       37
DOCKED: USER    Run = 37
DOCKED: USER    DPF = D:/Protein_go_brrr/autodock/final/mut_D99N/IHP/dock.dpf
DOCKED: USER  
DOCKED: USER    Estimated Free Energy of Binding    =   +2.82 kcal/mol  [=(1)+(2)+(3)-(4)]
DOCKED: USER    
DOCKED: USER    (1) Final Intermolecular Energy     =   -4.34 kcal/mol
DOCKED: USER        vdW + Hbond + desolv Energy     =   -3.82 kcal/mol
DOCKED: USER        Electrostatic Energy            =   -0.52 kcal/mol
DOCKED: USER    (2) Final Total Internal Energy     =  -14.22 kcal/mol
DOCKED: USER    (3) Torsional Free Energy           =   +7.16 kcal/mol
DOCKED: USER    (4) Unbound System's Energy  [=(2)] =  -14.22 kcal/mol
DOCKED: USER    
DOCKED: USER    
DOCKED: USER    NEWDPF move IHP_ideal_opt.pdbqt
DOCKED: USER    NEWDPF about 0.035000 0.082000 -0.065000
DOCKED: USER    NEWDPF tran0 20.689225 -12.738559 7.264381
DOCKED: USER    NEWDPF quaternion0 -0.979883 -0.022447 -0.038702 0.194492
DOCKED: USER    NEWDPF axisangle0 -0.998959 -0.022884 -0.039456 157.569928
DOCKED: USER    NEWDPF quat0 -0.998959 -0.022884 -0.039456 157.569928
DOCKED: USER    NEWDPF dihe0 88.61 143.56 103.66 92.69 118.42 83.96 11.07 -167.40 92.02 -17.34 -167.62 -83.53 -74.73 97.17 -179.89 -92.99 44.30 -38.49 -145.30 -6.87 16.51 -11.66 -170.57 153.30 
DOCKED: USER  keepresnum = 1 
DOCKED: USER  
DOCKED: REMARK  24 active torsions:
DOCKED: REMARK  status: ('A' for Active; 'I' for Inactive)
DOCKED: REMARK    1  A    between atoms: C_1  and  O_7 
DOCKED: REMARK    2  A    between atoms: C_2  and  O_12 
DOCKED: REMARK    3  A    between atoms: C_3  and  O_17 
DOCKED: REMARK    4  A    between atoms: C_4  and  O_22 
DOCKED: REMARK    5  A    between atoms: C_5  and  O_27 
DOCKED: REMARK    6  A    between atoms: C_6  and  O_32 
DOCKED: REMARK    7  A    between atoms: O_7  and  P_8 
DOCKED: REMARK    8  A    between atoms: P_8  and  O_10 
DOCKED: REMARK    9  A    between atoms: P_8  and  O_11 
DOCKED: REMARK   10  A    between atoms: O_12  and  P_13 
DOCKED: REMARK   11  A    between atoms: P_13  and  O_15 
DOCKED: REMARK   12  A    between atoms: P_13  and  O_16 
DOCKED: REMARK   13  A    between atoms: O_17  and  P_18 
DOCKED: REMARK   14  A    between atoms: P_18  and  O_20 
DOCKED: REMARK   15  A    between atoms: P_18  and  O_21 
DOCKED: REMARK   16  A    between atoms: O_22  and  P_23 
DOCKED: REMARK   17  A    between atoms: P_23  and  O_25 
DOCKED: REMARK   18  A    between atoms: P_23  and  O_26 
DOCKED: REMARK   19  A    between atoms: O_27  and  P_28 
DOCKED: REMARK   20  A    between atoms: P_28  and  O_30 
DOCKED: REMARK   21  A    between atoms: P_28  and  O_31 
DOCKED: REMARK   22  A    between atoms: O_32  and  P_33 
DOCKED: REMARK   23  A    between atoms: P_33  and  O_35 
DOCKED: REMARK   24  A    between atoms: P_33  and  O_36 
DOCKED: USER                              x       y       z     vdW  Elec       q    Type
DOCKED: USER                           _______ _______ _______ _____ _____    ______ ____
DOCKED: ROOT
DOCKED: ATOM      1  C   UNL d   1      21.978 -12.145   6.280 -0.09 +0.11    +0.194 C 
DOCKED: ATOM      2  C   UNL d   1      20.681 -11.336   6.228 -0.12 +0.07    +0.194 C 
DOCKED: ATOM      3  C   UNL d   1      19.451 -12.243   6.146 -0.07 +0.01    +0.194 C 
DOCKED: ATOM      4  C   UNL d   1      19.420 -13.315   7.232 -0.01 +0.00    +0.194 C 
DOCKED: ATOM      5  C   UNL d   1      20.733 -14.070   7.397 -0.00 +0.02    +0.194 C 
DOCKED: ATOM      6  C   UNL d   1      21.968 -13.167   7.417 -0.02 +0.05    +0.194 C 
DOCKED: ENDROOT
DOCKED: BRANCH   1   7
DOCKED: ATOM      7  O   UNL d   1      23.058 -11.241   6.529 -0.54 -0.40    -0.278 OA
DOCKED: BRANCH   7   8
DOCKED: ATOM      8  P   UNL d   1      23.497 -10.982   8.042 -0.05 +0.38    +0.473 P 
DOCKED: ATOM      9  O   UNL d   1      22.448 -11.261   9.061 -0.02 -0.07    -0.228 OA
DOCKED: BRANCH   8  10
DOCKED: ATOM     10  O   UNL d   1      24.804 -11.879   8.224 -0.05 -0.20    -0.303 OA
DOCKED: ATOM     11  H   UNL d   1      24.557 -12.823   8.208 +0.01 +0.10    +0.222 HD
DOCKED: ENDBRANCH   8  10
DOCKED: BRANCH   8  12
DOCKED: ATOM     12  O   UNL d   1      24.100  -9.512   8.052 -0.07 -0.33    -0.303 OA
DOCKED: ATOM     13  H   UNL d   1      23.458  -8.834   8.363 +0.01 +0.16    +0.222 HD
DOCKED: ENDBRANCH   8  12
DOCKED: ENDBRANCH   7   8
DOCKED: ENDBRANCH   1   7
DOCKED: BRANCH   2  14
DOCKED: ATOM     14  O   UNL d   1      20.581 -10.538   7.414 -0.05 -0.09    -0.278 OA
DOCKED: BRANCH  14  15
DOCKED: ATOM     15  P   UNL d   1      20.387  -8.962   7.202 -0.09 +0.16    +0.473 P 
DOCKED: ATOM     16  O   UNL d   1      19.675  -8.221   8.289 -0.04 -0.03    -0.228 OA
DOCKED: BRANCH  15  17
DOCKED: ATOM     17  O   UNL d   1      21.864  -8.421   6.949 -0.08 -0.22    -0.303 OA
DOCKED: ATOM     18  H   UNL d   1      22.498  -9.158   6.858 +0.02 +0.26    +0.222 HD
DOCKED: ENDBRANCH  15  17
DOCKED: BRANCH  15  19
DOCKED: ATOM     19  O   UNL d   1      19.747  -8.833   5.751 -0.66 -0.14    -0.303 OA
DOCKED: ATOM     20  H   UNL d   1      19.167  -9.589   5.545 +0.06 +0.07    +0.222 HD
DOCKED: ENDBRANCH  15  19
DOCKED: ENDBRANCH  14  15
DOCKED: ENDBRANCH   2  14
DOCKED: BRANCH   6  21
DOCKED: ATOM     21  O   UNL d   1      23.100 -14.013   7.229 -0.01 -0.08    -0.278 OA
DOCKED: BRANCH  21  22
DOCKED: ATOM     22  P   UNL d   1      23.769 -14.732   8.487 +0.01 +0.08    +0.473 P 
DOCKED: ATOM     23  O   UNL d   1      25.234 -15.013   8.441 +0.00 -0.04    -0.228 OA
DOCKED: BRANCH  22  24
DOCKED: ATOM     24  O   UNL d   1      23.307 -13.790   9.683 +0.00 -0.05    -0.303 OA
DOCKED: ATOM     25  H   UNL d   1      22.323 -13.686   9.631 +0.00 +0.03    +0.222 HD
DOCKED: ENDBRANCH  22  24
DOCKED: BRANCH  22  26
DOCKED: ATOM     26  O   UNL d   1      22.815 -16.005   8.680 +0.00 -0.03    -0.303 OA
DOCKED: ATOM     27  H   UNL d   1      22.084 -15.770   9.288 +0.00 +0.01    +0.222 HD
DOCKED: ENDBRANCH  22  26
DOCKED: ENDBRANCH  21  22
DOCKED: ENDBRANCH   6  21
DOCKED: BRANCH   3  28
DOCKED: ATOM     28  O   UNL d   1      18.306 -11.434   6.381 -0.06 +0.02    -0.278 OA
DOCKED: BRANCH  28  29
DOCKED: ATOM     29  P   UNL d   1      17.436 -10.896   5.160 -0.24 -0.13    +0.473 P 
DOCKED: ATOM     30  O   UNL d   1      17.356  -9.418   5.032 -0.24 +0.04    -0.228 OA
DOCKED: BRANCH  29  31
DOCKED: ATOM     31  O   UNL d   1      18.123 -11.694   3.955 -0.26 +0.08    -0.303 OA
DOCKED: ATOM     32  H   UNL d   1      17.991 -12.659   4.103 +0.02 -0.11    +0.222 HD
DOCKED: ENDBRANCH  29  31
DOCKED: BRANCH  29  33
DOCKED: ATOM     33  O   UNL d   1      16.062 -11.676   5.361 -0.20 +0.23    -0.303 OA
DOCKED: ATOM     34  H   UNL d   1      15.977 -12.364   4.656 -0.50 -0.40    +0.222 HD
DOCKED: ENDBRANCH  29  33
DOCKED: ENDBRANCH  28  29
DOCKED: ENDBRANCH   3  28
DOCKED: BRANCH   5  35
DOCKED: ATOM     35  O   UNL d   1      20.657 -14.706   8.671 +0.00 -0.02    -0.278 OA
DOCKED: BRANCH  35  36
DOCKED: ATOM     36  P   UNL d   1      20.016 -13.941   9.915 +0.00 +0.02    +0.473 P 
DOCKED: ATOM     37  O   UNL d   1      18.538 -14.102  10.080 +0.00 +0.00    -0.228 OA
DOCKED: BRANCH  36  38
DOCKED: ATOM     38  O   UNL d   1      20.876 -14.512  11.127 +0.00 -0.01    -0.303 OA
DOCKED: ATOM     39  H   UNL d   1      21.728 -14.856  10.783 +0.00 +0.01    +0.222 HD
DOCKED: ENDBRANCH  36  38
DOCKED: BRANCH  36  40
DOCKED: ATOM     40  O   UNL d   1      20.563 -12.460   9.722 +0.00 -0.03    -0.303 OA
DOCKED: ATOM     41  H   UNL d   1      21.545 -12.432   9.721 +0.01 +0.03    +0.222 HD
DOCKED: ENDBRANCH  36  40
DOCKED: ENDBRANCH  35  36
DOCKED: ENDBRANCH   5  35
DOCKED: BRANCH   4  42
DOCKED: ATOM     42  O   UNL d   1      18.430 -14.272   6.842 -0.01 +0.03    -0.278 OA
DOCKED: BRANCH  42  43
DOCKED: ATOM     43  P   UNL d   1      18.356 -14.726   5.315 -0.02 -0.10    +0.473 P 
DOCKED: ATOM     44  O   UNL d   1      19.434 -14.250   4.403 -0.05 +0.02    -0.228 OA
DOCKED: BRANCH  43  45
DOCKED: ATOM     45  O   UNL d   1      18.251 -16.310   5.426 -0.00 +0.04    -0.303 OA
DOCKED: ATOM     46  H   UNL d   1      17.421 -16.643   5.029 +0.02 -0.03    +0.222 HD
DOCKED: ENDBRANCH  43  45
DOCKED: BRANCH  43  47
DOCKED: ATOM     47  O   UNL d   1      16.863 -14.330   4.887 -0.05 +0.26    -0.303 OA
DOCKED: ATOM     48  H   UNL d   1      16.873 -13.449   4.458 -0.41 -0.30    +0.222 HD
DOCKED: ENDBRANCH  43  47
DOCKED: ENDBRANCH  42  43
DOCKED: ENDBRANCH   4  42
DOCKED: TORSDOF 24
DOCKED: TER
DOCKED: ENDMDL
________________________________________________________________________________


	BEGINNING GENETIC ALGORITHM DOCKING 38 of 100
Run: 38 Seed: 828058210 1954723558 [ Run 38 of 100 GA/GALS ]
Beginning LAMARCKIAN GENETIC ALGORITHM (LGA), with a maximum of 25000000 energy evaluations.

Final-Value: -19.338


	FINAL GENETIC ALGORITHM DOCKED STATE
	_______________________________________________


Detailed state:  trans -3.751 -7.756 15.322 quatxyzw 0.941087 -0.223577 0.165058 0.192675 center 0.035 0.082 -0.065 ntor 24 -117.5876 17.8990 79.2008 134.9033 16.3136 -113.9571 -12.6801 -161.7660 70.5626 0.8485 134.4278 165.1745 50.3697 -79.3783 -49.6913 -43.2704 130.8391 -124.8897 33.3748 -7.4660 -176.2285 141.8186 -9.9363 176.8655
State:	 -3.751  -7.756  15.322   0.959 -0.228  0.168 157.782   -117.59   17.90   79.20  134.90   16.31 -113.96  -12.68 -161.77   70.56    0.85  134.43  165.17   50.37  -79.38  -49.69  -43.27  130.84 -124.89   33.37   -7.47 -176.23  141.82   -9.94  176.87

DOCKED: MODEL       38
DOCKED: USER    Run = 38
DOCKED: USER    DPF = D:/Protein_go_brrr/autodock/final/mut_D99N/IHP/dock.dpf
DOCKED: USER  
DOCKED: USER    Estimated Free Energy of Binding    =   +1.80 kcal/mol  [=(1)+(2)+(3)-(4)]
DOCKED: USER    
DOCKED: USER    (1) Final Intermolecular Energy     =   -5.36 kcal/mol
DOCKED: USER        vdW + Hbond + desolv Energy     =   -4.72 kcal/mol
DOCKED: USER        Electrostatic Energy            =   -0.65 kcal/mol
DOCKED: USER    (2) Final Total Internal Energy     =  -13.97 kcal/mol
DOCKED: USER    (3) Torsional Free Energy           =   +7.16 kcal/mol
DOCKED: USER    (4) Unbound System's Energy  [=(2)] =  -13.97 kcal/mol
DOCKED: USER    
DOCKED: USER    
DOCKED: USER    NEWDPF move IHP_ideal_opt.pdbqt
DOCKED: USER    NEWDPF about 0.035000 0.082000 -0.065000
DOCKED: USER    NEWDPF tran0 -3.750893 -7.755846 15.321605
DOCKED: USER    NEWDPF quaternion0 0.941087 -0.223577 0.165058 0.192675
DOCKED: USER    NEWDPF axisangle0 0.959058 -0.227846 0.168210 157.782100
DOCKED: USER    NEWDPF quat0 0.959058 -0.227846 0.168210 157.782100
DOCKED: USER    NEWDPF dihe0 -117.59 17.90 79.20 134.90 16.31 -113.96 -12.68 -161.77 70.56 0.85 134.43 165.17 50.37 -79.38 -49.69 -43.27 130.84 -124.89 33.37 -7.47 -176.23 141.82 -9.94 176.87 
DOCKED: USER  keepresnum = 1 
DOCKED: USER  
DOCKED: REMARK  24 active torsions:
DOCKED: REMARK  status: ('A' for Active; 'I' for Inactive)
DOCKED: REMARK    1  A    between atoms: C_1  and  O_7 
DOCKED: REMARK    2  A    between atoms: C_2  and  O_12 
DOCKED: REMARK    3  A    between atoms: C_3  and  O_17 
DOCKED: REMARK    4  A    between atoms: C_4  and  O_22 
DOCKED: REMARK    5  A    between atoms: C_5  and  O_27 
DOCKED: REMARK    6  A    between atoms: C_6  and  O_32 
DOCKED: REMARK    7  A    between atoms: O_7  and  P_8 
DOCKED: REMARK    8  A    between atoms: P_8  and  O_10 
DOCKED: REMARK    9  A    between atoms: P_8  and  O_11 
DOCKED: REMARK   10  A    between atoms: O_12  and  P_13 
DOCKED: REMARK   11  A    between atoms: P_13  and  O_15 
DOCKED: REMARK   12  A    between atoms: P_13  and  O_16 
DOCKED: REMARK   13  A    between atoms: O_17  and  P_18 
DOCKED: REMARK   14  A    between atoms: P_18  and  O_20 
DOCKED: REMARK   15  A    between atoms: P_18  and  O_21 
DOCKED: REMARK   16  A    between atoms: O_22  and  P_23 
DOCKED: REMARK   17  A    between atoms: P_23  and  O_25 
DOCKED: REMARK   18  A    between atoms: P_23  and  O_26 
DOCKED: REMARK   19  A    between atoms: O_27  and  P_28 
DOCKED: REMARK   20  A    between atoms: P_28  and  O_30 
DOCKED: REMARK   21  A    between atoms: P_28  and  O_31 
DOCKED: REMARK   22  A    between atoms: O_32  and  P_33 
DOCKED: REMARK   23  A    between atoms: P_33  and  O_35 
DOCKED: REMARK   24  A    between atoms: P_33  and  O_36 
DOCKED: USER                              x       y       z     vdW  Elec       q    Type
DOCKED: USER                           _______ _______ _______ _____ _____    ______ ____
DOCKED: ROOT
DOCKED: ATOM      1  C   UNL d   1      -2.060  -7.401  15.301 -0.06 +0.02    +0.194 C 
DOCKED: ATOM      2  C   UNL d   1      -2.975  -6.239  15.694 -0.11 +0.05    +0.194 C 
DOCKED: ATOM      3  C   UNL d   1      -4.210  -6.162  14.794 -0.16 +0.03    +0.194 C 
DOCKED: ATOM      4  C   UNL d   1      -4.967  -7.484  14.696 -0.06 +0.02    +0.194 C 
DOCKED: ATOM      5  C   UNL d   1      -4.077  -8.689  14.419 -0.06 -0.00    +0.194 C 
DOCKED: ATOM      6  C   UNL d   1      -2.810  -8.734  15.277 -0.03 +0.00    +0.194 C 
DOCKED: ENDROOT
DOCKED: BRANCH   1   7
DOCKED: ATOM      7  O   UNL d   1      -1.030  -7.510  16.286 -0.02 -0.05    -0.278 OA
DOCKED: BRANCH   7   8
DOCKED: ATOM      8  P   UNL d   1       0.312  -6.669  16.077 -0.05 +0.17    +0.473 P 
DOCKED: ATOM      9  O   UNL d   1       0.416  -5.432  16.898 -0.68 -0.27    -0.228 OA
DOCKED: BRANCH   8  10
DOCKED: ATOM     10  O   UNL d   1       1.476  -7.719  16.373 -0.01 -0.03    -0.303 OA
DOCKED: ATOM     11  H   UNL d   1       1.666  -8.233  15.566 +0.05 -0.01    +0.222 HD
DOCKED: ENDBRANCH   8  10
DOCKED: BRANCH   8  12
DOCKED: ATOM     12  O   UNL d   1       0.435  -6.471  14.506 -0.10 -0.06    -0.303 OA
DOCKED: ATOM     13  H   UNL d   1      -0.002  -7.187  13.992 +0.09 +0.01    +0.222 HD
DOCKED: ENDBRANCH   8  12
DOCKED: ENDBRANCH   7   8
DOCKED: ENDBRANCH   1   7
DOCKED: BRANCH   2  14
DOCKED: ATOM     14  O   UNL d   1      -3.407  -6.422  17.048 -0.04 -0.07    -0.278 OA
DOCKED: BRANCH  14  15
DOCKED: ATOM     15  P   UNL d   1      -3.106  -5.220  18.063 -0.08 +0.20    +0.473 P 
DOCKED: ATOM     16  O   UNL d   1      -1.975  -4.307  17.707 -0.19 -0.26    -0.228 OA
DOCKED: BRANCH  15  17
DOCKED: ATOM     17  O   UNL d   1      -4.500  -4.458  18.186 -0.11 -0.10    -0.303 OA
DOCKED: ATOM     18  H   UNL d   1      -5.102  -4.708  17.459 +0.06 +0.06    +0.222 HD
DOCKED: ENDBRANCH  15  17
DOCKED: BRANCH  15  19
DOCKED: ATOM     19  O   UNL d   1      -2.999  -5.922  19.487 -0.01 -0.08    -0.303 OA
DOCKED: ATOM     20  H   UNL d   1      -2.156  -6.400  19.591 +0.02 +0.06    +0.222 HD
DOCKED: ENDBRANCH  15  19
DOCKED: ENDBRANCH  14  15
DOCKED: ENDBRANCH   2  14
DOCKED: BRANCH   6  21
DOCKED: ATOM     21  O   UNL d   1      -1.941  -9.692  14.678 -0.04 +0.03    -0.278 OA
DOCKED: BRANCH  21  22
DOCKED: ATOM     22  P   UNL d   1      -1.042  -9.274  13.428 -0.03 -0.11    +0.473 P 
DOCKED: ATOM     23  O   UNL d   1      -1.440  -8.066  12.647 -0.08 +0.04    -0.228 OA
DOCKED: BRANCH  22  24
DOCKED: ATOM     24  O   UNL d   1       0.408  -9.200  14.079 -0.07 +0.04    -0.303 OA
DOCKED: ATOM     25  H   UNL d   1       0.349  -8.649  14.900 +0.06 -0.01    +0.222 HD
DOCKED: ENDBRANCH  22  24
DOCKED: BRANCH  22  26
DOCKED: ATOM     26  O   UNL d   1      -0.967 -10.648  12.606 -0.08 +0.16    -0.303 OA
DOCKED: ATOM     27  H   UNL d   1      -1.838 -10.826  12.196 -0.41 -0.31    +0.222 HD
DOCKED: ENDBRANCH  22  26
DOCKED: ENDBRANCH  21  22
DOCKED: ENDBRANCH   6  21
DOCKED: BRANCH   3  28
DOCKED: ATOM     28  O   UNL d   1      -5.121  -5.250  15.394 -0.18 -0.05    -0.278 OA
DOCKED: BRANCH  28  29
DOCKED: ATOM     29  P   UNL d   1      -6.451  -5.782  16.090 -0.07 +0.07    +0.473 P 
DOCKED: ATOM     30  O   UNL d   1      -7.477  -6.336  15.171 -0.07 -0.03    -0.228 OA
DOCKED: BRANCH  29  31
DOCKED: ATOM     31  O   UNL d   1      -5.821  -6.785  17.166 -0.02 -0.04    -0.303 OA
DOCKED: ATOM     32  H   UNL d   1      -5.001  -6.380  17.532 +0.04 +0.04    +0.222 HD
DOCKED: ENDBRANCH  29  31
DOCKED: BRANCH  29  33
DOCKED: ATOM     33  O   UNL d   1      -6.882  -4.536  16.983 -0.12 -0.06    -0.303 OA
DOCKED: ATOM     34  H   UNL d   1      -6.638  -4.715  17.924 +0.05 +0.04    +0.222 HD
DOCKED: ENDBRANCH  29  33
DOCKED: ENDBRANCH  28  29
DOCKED: ENDBRANCH   3  28
DOCKED: BRANCH   5  35
DOCKED: ATOM     35  O   UNL d   1      -4.856  -9.833  14.763 -0.02 -0.01    -0.278 OA
DOCKED: BRANCH  35  36
DOCKED: ATOM     36  P   UNL d   1      -5.176 -10.948  13.668 -0.06 +0.04    +0.473 P 
DOCKED: ATOM     37  O   UNL d   1      -5.905 -12.154  14.168 -0.01 -0.03    -0.228 OA
DOCKED: BRANCH  36  38
DOCKED: ATOM     38  O   UNL d   1      -5.971 -10.110  12.572 -0.52 -0.18    -0.303 OA
DOCKED: ATOM     39  H   UNL d   1      -6.032  -9.175  12.864 +0.05 +0.07    +0.222 HD
DOCKED: ENDBRANCH  36  38
DOCKED: BRANCH  36  40
DOCKED: ATOM     40  O   UNL d   1      -3.751 -11.190  13.004 +0.01 +0.15    -0.303 OA
DOCKED: ATOM     41  H   UNL d   1      -3.262 -10.347  12.874 -0.53 -0.22    +0.222 HD
DOCKED: ENDBRANCH  36  40
DOCKED: ENDBRANCH  35  36
DOCKED: ENDBRANCH   5  35
DOCKED: BRANCH   4  42
DOCKED: ATOM     42  O   UNL d   1      -5.869  -7.365  13.591 -0.08 -0.04    -0.278 OA
DOCKED: BRANCH  42  43
DOCKED: ATOM     43  P   UNL d   1      -5.272  -7.222  12.119 -0.22 +0.06    +0.473 P 
DOCKED: ATOM     44  O   UNL d   1      -4.772  -5.881  11.708 -0.37 -0.02    -0.228 OA
DOCKED: BRANCH  43  45
DOCKED: ATOM     45  O   UNL d   1      -4.168  -8.368  12.078 -0.20 +0.07    -0.303 OA
DOCKED: ATOM     46  H   UNL d   1      -4.566  -9.253  12.207 -0.19 -0.04    +0.222 HD
DOCKED: ENDBRANCH  43  45
DOCKED: BRANCH  43  47
DOCKED: ATOM     47  O   UNL d   1      -6.423  -7.845  11.194 -0.07 -0.14    -0.303 OA
DOCKED: ATOM     48  H   UNL d   1      -7.041  -8.361  11.752 +0.06 +0.11    +0.222 HD
DOCKED: ENDBRANCH  43  47
DOCKED: ENDBRANCH  42  43
DOCKED: ENDBRANCH   4  42
DOCKED: TORSDOF 24
DOCKED: TER
DOCKED: ENDMDL
________________________________________________________________________________


	BEGINNING GENETIC ALGORITHM DOCKING 39 of 100
Run: 39 Seed: 544924728 181600187 [ Run 39 of 100 GA/GALS ]
Beginning LAMARCKIAN GENETIC ALGORITHM (LGA), with a maximum of 25000000 energy evaluations.

Final-Value: -19.835


	FINAL GENETIC ALGORITHM DOCKED STATE
	_______________________________________________


Detailed state:  trans 15.656 -12.267 6.289 quatxyzw -0.832631 -0.547601 0.080868 -0.017886 center 0.035 0.082 -0.065 ntor 24 -165.4682 -3.5648 44.1117 88.7591 127.8908 -140.8566 -41.9184 -89.7221 4.0177 14.6091 148.5051 122.5793 32.1441 -51.9853 68.9480 -60.6680 175.7006 -163.9466 -137.5396 -8.6150 24.5253 -2.1807 -178.4058 14.2794
State:	 15.656 -12.267   6.289  -0.833 -0.548  0.081 -177.950   -165.47   -3.56   44.11   88.76  127.89 -140.86  -41.92  -89.72    4.02   14.61  148.51  122.58   32.14  -51.99   68.95  -60.67  175.70 -163.95 -137.54   -8.62   24.53   -2.18 -178.41   14.28

DOCKED: MODEL       39
DOCKED: USER    Run = 39
DOCKED: USER    DPF = D:/Protein_go_brrr/autodock/final/mut_D99N/IHP/dock.dpf
DOCKED: USER  
DOCKED: USER    Estimated Free Energy of Binding    =   +2.01 kcal/mol  [=(1)+(2)+(3)-(4)]
DOCKED: USER    
DOCKED: USER    (1) Final Intermolecular Energy     =   -5.15 kcal/mol
DOCKED: USER        vdW + Hbond + desolv Energy     =   -4.54 kcal/mol
DOCKED: USER        Electrostatic Energy            =   -0.61 kcal/mol
DOCKED: USER    (2) Final Total Internal Energy     =  -14.69 kcal/mol
DOCKED: USER    (3) Torsional Free Energy           =   +7.16 kcal/mol
DOCKED: USER    (4) Unbound System's Energy  [=(2)] =  -14.69 kcal/mol
DOCKED: USER    
DOCKED: USER    
DOCKED: USER    NEWDPF move IHP_ideal_opt.pdbqt
DOCKED: USER    NEWDPF about 0.035000 0.082000 -0.065000
DOCKED: USER    NEWDPF tran0 15.656494 -12.267486 6.288753
DOCKED: USER    NEWDPF quaternion0 -0.832631 -0.547601 0.080868 -0.017886
DOCKED: USER    NEWDPF axisangle0 -0.832764 -0.547689 0.080881 -177.950254
DOCKED: USER    NEWDPF quat0 -0.832764 -0.547689 0.080881 -177.950254
DOCKED: USER    NEWDPF dihe0 -165.47 -3.56 44.11 88.76 127.89 -140.86 -41.92 -89.72 4.02 14.61 148.51 122.58 32.14 -51.99 68.95 -60.67 175.70 -163.95 -137.54 -8.62 24.53 -2.18 -178.41 14.28 
DOCKED: USER  keepresnum = 1 
DOCKED: USER  
DOCKED: REMARK  24 active torsions:
DOCKED: REMARK  status: ('A' for Active; 'I' for Inactive)
DOCKED: REMARK    1  A    between atoms: C_1  and  O_7 
DOCKED: REMARK    2  A    between atoms: C_2  and  O_12 
DOCKED: REMARK    3  A    between atoms: C_3  and  O_17 
DOCKED: REMARK    4  A    between atoms: C_4  and  O_22 
DOCKED: REMARK    5  A    between atoms: C_5  and  O_27 
DOCKED: REMARK    6  A    between atoms: C_6  and  O_32 
DOCKED: REMARK    7  A    between atoms: O_7  and  P_8 
DOCKED: REMARK    8  A    between atoms: P_8  and  O_10 
DOCKED: REMARK    9  A    between atoms: P_8  and  O_11 
DOCKED: REMARK   10  A    between atoms: O_12  and  P_13 
DOCKED: REMARK   11  A    between atoms: P_13  and  O_15 
DOCKED: REMARK   12  A    between atoms: P_13  and  O_16 
DOCKED: REMARK   13  A    between atoms: O_17  and  P_18 
DOCKED: REMARK   14  A    between atoms: P_18  and  O_20 
DOCKED: REMARK   15  A    between atoms: P_18  and  O_21 
DOCKED: REMARK   16  A    between atoms: O_22  and  P_23 
DOCKED: REMARK   17  A    between atoms: P_23  and  O_25 
DOCKED: REMARK   18  A    between atoms: P_23  and  O_26 
DOCKED: REMARK   19  A    between atoms: O_27  and  P_28 
DOCKED: REMARK   20  A    between atoms: P_28  and  O_30 
DOCKED: REMARK   21  A    between atoms: P_28  and  O_31 
DOCKED: REMARK   22  A    between atoms: O_32  and  P_33 
DOCKED: REMARK   23  A    between atoms: P_33  and  O_35 
DOCKED: REMARK   24  A    between atoms: P_33  and  O_36 
DOCKED: USER                              x       y       z     vdW  Elec       q    Type
DOCKED: USER                           _______ _______ _______ _____ _____    ______ ____
DOCKED: ROOT
DOCKED: ATOM      1  C   UNL d   1      15.212 -10.813   5.470 -0.32 -0.12    +0.194 C 
DOCKED: ATOM      2  C   UNL d   1      14.055 -11.612   6.072 -0.26 -0.11    +0.194 C 
DOCKED: ATOM      3  C   UNL d   1      14.209 -13.112   5.817 -0.08 -0.15    +0.194 C 
DOCKED: ATOM      4  C   UNL d   1      15.570 -13.658   6.242 -0.06 -0.12    +0.194 C 
DOCKED: ATOM      5  C   UNL d   1      16.751 -12.826   5.758 -0.08 -0.12    +0.194 C 
DOCKED: ATOM      6  C   UNL d   1      16.570 -11.320   5.958 -0.21 -0.08    +0.194 C 
DOCKED: ENDROOT
DOCKED: BRANCH   1   7
DOCKED: ATOM      7  O   UNL d   1      15.086  -9.454   5.896 +0.04 +0.14    -0.278 OA
DOCKED: BRANCH   7   8
DOCKED: ATOM      8  P   UNL d   1      15.992  -8.953   7.113 -0.15 -0.14    +0.473 P 
DOCKED: ATOM      9  O   UNL d   1      17.369  -8.529   6.742 -0.24 +0.01    -0.228 OA
DOCKED: BRANCH   8  10
DOCKED: ATOM     10  O   UNL d   1      15.133  -7.786   7.779 -0.14 +0.15    -0.303 OA
DOCKED: ATOM     11  H   UNL d   1      14.186  -8.016   7.744 -0.20 -0.20    +0.222 HD
DOCKED: ENDBRANCH   8  10
DOCKED: BRANCH   8  12
DOCKED: ATOM     12  O   UNL d   1      15.891 -10.104   8.204 -0.06 +0.07    -0.303 OA
DOCKED: ATOM     13  H   UNL d   1      14.965 -10.385   8.383 +0.04 -0.07    +0.222 HD
DOCKED: ENDBRANCH   8  12
DOCKED: ENDBRANCH   7   8
DOCKED: ENDBRANCH   1   7
DOCKED: BRANCH   2  14
DOCKED: ATOM     14  O   UNL d   1      14.022 -11.390   7.488 -0.10 +0.11    -0.278 OA
DOCKED: BRANCH  14  15
DOCKED: ATOM     15  P   UNL d   1      12.655 -10.813   8.090 -0.04 -0.19    +0.473 P 
DOCKED: ATOM     16  O   UNL d   1      11.520 -10.638   7.132 -0.27 +0.09    -0.228 OA
DOCKED: BRANCH  15  17
DOCKED: ATOM     17  O   UNL d   1      12.307 -11.809   9.284 -0.02 +0.08    -0.303 OA
DOCKED: ATOM     18  H   UNL d   1      12.325 -12.738   8.984 +0.04 -0.05    +0.222 HD
DOCKED: ENDBRANCH  15  17
DOCKED: BRANCH  15  19
DOCKED: ATOM     19  O   UNL d   1      13.092  -9.505   8.883 -0.08 +0.14    -0.303 OA
DOCKED: ATOM     20  H   UNL d   1      13.886  -9.095   8.492 -0.35 -0.12    +0.222 HD
DOCKED: ENDBRANCH  15  19
DOCKED: ENDBRANCH  14  15
DOCKED: ENDBRANCH   2  14
DOCKED: BRANCH   6  21
DOCKED: ATOM     21  O   UNL d   1      17.566 -10.677   5.165 -0.28 +0.06    -0.278 OA
DOCKED: BRANCH  21  22
DOCKED: ATOM     22  P   UNL d   1      19.073 -10.615   5.684 -0.17 +0.06    +0.473 P 
DOCKED: ATOM     23  O   UNL d   1      20.045 -11.610   5.145 -0.15 -0.05    -0.228 OA
DOCKED: BRANCH  22  24
DOCKED: ATOM     24  O   UNL d   1      19.451  -9.094   5.408 -0.80 -0.14    -0.303 OA
DOCKED: ATOM     25  H   UNL d   1      18.847  -8.524   5.948 +0.07 +0.07    +0.222 HD
DOCKED: ENDBRANCH  22  24
DOCKED: BRANCH  22  26
DOCKED: ATOM     26  O   UNL d   1      18.870 -10.622   7.275 -0.03 -0.02    -0.303 OA
DOCKED: ATOM     27  H   UNL d   1      18.209 -11.304   7.512 +0.05 -0.01    +0.222 HD
DOCKED: ENDBRANCH  22  26
DOCKED: ENDBRANCH  21  22
DOCKED: ENDBRANCH   6  21
DOCKED: BRANCH   3  28
DOCKED: ATOM     28  O   UNL d   1      13.261 -13.785   6.635 -0.07 +0.10    -0.278 OA
DOCKED: BRANCH  28  29
DOCKED: ATOM     29  P   UNL d   1      11.982 -14.476   5.983 -0.11 -0.10    +0.473 P 
DOCKED: ATOM     30  O   UNL d   1      10.805 -13.591   5.790 -0.24 +0.05    -0.228 OA
DOCKED: BRANCH  29  31
DOCKED: ATOM     31  O   UNL d   1      12.644 -15.102   4.667 -0.21 +0.05    -0.303 OA
DOCKED: ATOM     32  H   UNL d   1      13.623 -15.016   4.737 -0.06 -0.12    +0.222 HD
DOCKED: ENDBRANCH  29  31
DOCKED: BRANCH  29  33
DOCKED: ATOM     33  O   UNL d   1      11.779 -15.751   6.915 -0.02 +0.03    -0.303 OA
DOCKED: ATOM     34  H   UNL d   1      12.660 -16.044   7.255 +0.03 -0.02    +0.222 HD
DOCKED: ENDBRANCH  29  33
DOCKED: ENDBRANCH  28  29
DOCKED: ENDBRANCH   3  28
DOCKED: BRANCH   5  35
DOCKED: ATOM     35  O   UNL d   1      17.861 -13.225   6.561 -0.03 +0.05    -0.278 OA
DOCKED: BRANCH  35  36
DOCKED: ATOM     36  P   UNL d   1      17.713 -13.324   8.146 +0.01 -0.04    +0.473 P 
DOCKED: ATOM     37  O   UNL d   1      18.884 -12.831   8.935 -0.00 -0.00    -0.228 OA
DOCKED: BRANCH  36  38
DOCKED: ATOM     38  O   UNL d   1      16.366 -12.513   8.399 -0.00 +0.05    -0.303 OA
DOCKED: ATOM     39  H   UNL d   1      16.509 -11.571   8.167 +0.04 -0.04    +0.222 HD
DOCKED: ENDBRANCH  36  38
DOCKED: BRANCH  36  40
DOCKED: ATOM     40  O   UNL d   1      17.290 -14.843   8.354 +0.00 +0.03    -0.303 OA
DOCKED: ATOM     41  H   UNL d   1      16.824 -15.202   7.567 +0.01 -0.03    +0.222 HD
DOCKED: ENDBRANCH  36  40
DOCKED: ENDBRANCH  35  36
DOCKED: ENDBRANCH   5  35
DOCKED: BRANCH   4  42
DOCKED: ATOM     42  O   UNL d   1      15.700 -14.956   5.651 -0.07 +0.16    -0.278 OA
DOCKED: BRANCH  42  43
DOCKED: ATOM     43  P   UNL d   1      15.340 -16.240   6.526 -0.00 -0.09    +0.473 P 
DOCKED: ATOM     44  O   UNL d   1      16.431 -17.220   6.787 -0.00 +0.02    -0.228 OA
DOCKED: BRANCH  43  45
DOCKED: ATOM     45  O   UNL d   1      14.710 -15.603   7.840 -0.00 +0.04    -0.303 OA
DOCKED: ATOM     46  H   UNL d   1      13.801 -15.278   7.680 +0.02 -0.04    +0.222 HD
DOCKED: ENDBRANCH  43  45
DOCKED: BRANCH  43  47
DOCKED: ATOM     47  O   UNL d   1      14.042 -16.830   5.794 -0.02 +0.03    -0.303 OA
DOCKED: ATOM     48  H   UNL d   1      13.339 -16.147   5.784 +0.04 -0.03    +0.222 HD
DOCKED: ENDBRANCH  43  47
DOCKED: ENDBRANCH  42  43
DOCKED: ENDBRANCH   4  42
DOCKED: TORSDOF 24
DOCKED: TER
DOCKED: ENDMDL
________________________________________________________________________________


	BEGINNING GENETIC ALGORITHM DOCKING 40 of 100
Run: 40 Seed: 1243790267 429846151 [ Run 40 of 100 GA/GALS ]
Beginning LAMARCKIAN GENETIC ALGORITHM (LGA), with a maximum of 25000000 energy evaluations.

Final-Value: -15.459


	FINAL GENETIC ALGORITHM DOCKED STATE
	_______________________________________________


Detailed state:  trans 17.813 1.218 -5.881 quatxyzw 0.590036 -0.384386 -0.009178 0.709944 center 0.035 0.082 -0.065 ntor 24 -93.4646 24.1770 90.4410 110.2850 26.9417 -20.5249 13.2251 -91.8706 -50.3931 66.0924 112.3670 -45.3627 58.0659 110.0551 -51.0055 97.9526 -8.3038 51.5208 26.9678 -5.4147 -179.2817 -0.9886 143.8524 -176.4664
State:	 17.813   1.218  -5.881   0.838 -0.546 -0.013 89.539    -93.46   24.18   90.44  110.28   26.94  -20.52   13.23  -91.87  -50.39   66.09  112.37  -45.36   58.07  110.06  -51.01   97.95   -8.30   51.52   26.97   -5.41 -179.28   -0.99  143.85 -176.47

DOCKED: MODEL       40
DOCKED: USER    Run = 40
DOCKED: USER    DPF = D:/Protein_go_brrr/autodock/final/mut_D99N/IHP/dock.dpf
DOCKED: USER  
DOCKED: USER    Estimated Free Energy of Binding    =   +3.67 kcal/mol  [=(1)+(2)+(3)-(4)]
DOCKED: USER    
DOCKED: USER    (1) Final Intermolecular Energy     =   -3.49 kcal/mol
DOCKED: USER        vdW + Hbond + desolv Energy     =   -3.50 kcal/mol
DOCKED: USER        Electrostatic Energy            =   +0.02 kcal/mol
DOCKED: USER    (2) Final Total Internal Energy     =  -11.97 kcal/mol
DOCKED: USER    (3) Torsional Free Energy           =   +7.16 kcal/mol
DOCKED: USER    (4) Unbound System's Energy  [=(2)] =  -11.97 kcal/mol
DOCKED: USER    
DOCKED: USER    
DOCKED: USER    NEWDPF move IHP_ideal_opt.pdbqt
DOCKED: USER    NEWDPF about 0.035000 0.082000 -0.065000
DOCKED: USER    NEWDPF tran0 17.812984 1.218059 -5.881056
DOCKED: USER    NEWDPF quaternion0 0.590036 -0.384386 -0.009178 0.709944
DOCKED: USER    NEWDPF axisangle0 0.837812 -0.545803 -0.013032 89.539302
DOCKED: USER    NEWDPF quat0 0.837812 -0.545803 -0.013032 89.539302
DOCKED: USER    NEWDPF dihe0 -93.46 24.18 90.44 110.28 26.94 -20.52 13.23 -91.87 -50.39 66.09 112.37 -45.36 58.07 110.06 -51.01 97.95 -8.30 51.52 26.97 -5.41 -179.28 -0.99 143.85 -176.47 
DOCKED: USER  keepresnum = 1 
DOCKED: USER  
DOCKED: REMARK  24 active torsions:
DOCKED: REMARK  status: ('A' for Active; 'I' for Inactive)
DOCKED: REMARK    1  A    between atoms: C_1  and  O_7 
DOCKED: REMARK    2  A    between atoms: C_2  and  O_12 
DOCKED: REMARK    3  A    between atoms: C_3  and  O_17 
DOCKED: REMARK    4  A    between atoms: C_4  and  O_22 
DOCKED: REMARK    5  A    between atoms: C_5  and  O_27 
DOCKED: REMARK    6  A    between atoms: C_6  and  O_32 
DOCKED: REMARK    7  A    between atoms: O_7  and  P_8 
DOCKED: REMARK    8  A    between atoms: P_8  and  O_10 
DOCKED: REMARK    9  A    between atoms: P_8  and  O_11 
DOCKED: REMARK   10  A    between atoms: O_12  and  P_13 
DOCKED: REMARK   11  A    between atoms: P_13  and  O_15 
DOCKED: REMARK   12  A    between atoms: P_13  and  O_16 
DOCKED: REMARK   13  A    between atoms: O_17  and  P_18 
DOCKED: REMARK   14  A    between atoms: P_18  and  O_20 
DOCKED: REMARK   15  A    between atoms: P_18  and  O_21 
DOCKED: REMARK   16  A    between atoms: O_22  and  P_23 
DOCKED: REMARK   17  A    between atoms: P_23  and  O_25 
DOCKED: REMARK   18  A    between atoms: P_23  and  O_26 
DOCKED: REMARK   19  A    between atoms: O_27  and  P_28 
DOCKED: REMARK   20  A    between atoms: P_28  and  O_30 
DOCKED: REMARK   21  A    between atoms: P_28  and  O_31 
DOCKED: REMARK   22  A    between atoms: O_32  and  P_33 
DOCKED: REMARK   23  A    between atoms: P_33  and  O_35 
DOCKED: REMARK   24  A    between atoms: P_33  and  O_36 
DOCKED: USER                              x       y       z     vdW  Elec       q    Type
DOCKED: USER                           _______ _______ _______ _____ _____    ______ ____
DOCKED: ROOT
DOCKED: ATOM      1  C   UNL d   1      19.533   1.065  -5.834 -0.11 +0.00    +0.194 C 
DOCKED: ATOM      2  C   UNL d   1      18.832   1.059  -4.475 -0.14 -0.01    +0.194 C 
DOCKED: ATOM      3  C   UNL d   1      17.737   2.125  -4.397 -0.11 -0.01    +0.194 C 
DOCKED: ATOM      4  C   UNL d   1      16.747   2.057  -5.558 -0.05 -0.01    +0.194 C 
DOCKED: ATOM      5  C   UNL d   1      17.404   1.945  -6.928 -0.11 -0.00    +0.194 C 
DOCKED: ATOM      6  C   UNL d   1      18.540   0.922  -6.989 -0.15 +0.01    +0.194 C 
DOCKED: ENDROOT
DOCKED: BRANCH   1   7
DOCKED: ATOM      7  O   UNL d   1      20.413  -0.061  -5.887 -0.08 -0.02    -0.278 OA
DOCKED: BRANCH   7   8
DOCKED: ATOM      8  P   UNL d   1      21.949   0.157  -5.507 -0.04 +0.03    +0.473 P 
DOCKED: ATOM      9  O   UNL d   1      22.374  -0.460  -4.221 -0.07 -0.01    -0.228 OA
DOCKED: BRANCH   8  10
DOCKED: ATOM     10  O   UNL d   1      22.744  -0.409  -6.768 -0.06 -0.02    -0.303 OA
DOCKED: ATOM     11  H   UNL d   1      23.141   0.331  -7.264 +0.02 +0.01    +0.222 HD
DOCKED: ENDBRANCH   8  10
DOCKED: BRANCH   8  12
DOCKED: ATOM     12  O   UNL d   1      22.188   1.722  -5.638 -0.01 -0.01    -0.303 OA
DOCKED: ATOM     13  H   UNL d   1      21.522   2.168  -6.208 +0.02 +0.01    +0.222 HD
DOCKED: ENDBRANCH   8  12
DOCKED: ENDBRANCH   7   8
DOCKED: ENDBRANCH   1   7
DOCKED: BRANCH   2  14
DOCKED: ATOM     14  O   UNL d   1      18.233  -0.226  -4.264 -0.22 +0.05    -0.278 OA
DOCKED: BRANCH  14  15
DOCKED: ATOM     15  P   UNL d   1      18.620  -0.982  -2.906 -0.18 -0.07    +0.473 P 
DOCKED: ATOM     16  O   UNL d   1      17.764  -2.146  -2.517 -0.39 +0.07    -0.228 OA
DOCKED: BRANCH  15  17
DOCKED: ATOM     17  O   UNL d   1      20.150  -1.380  -3.106 -0.14 -0.00    -0.303 OA
DOCKED: ATOM     18  H   UNL d   1      20.456  -1.157  -4.006 +0.05 +0.01    +0.222 HD
DOCKED: ENDBRANCH  15  17
DOCKED: BRANCH  15  19
DOCKED: ATOM     19  O   UNL d   1      18.731   0.179  -1.824 -0.07 +0.03    -0.303 OA
DOCKED: ATOM     20  H   UNL d   1      17.944   0.755  -1.831 +0.03 -0.03    +0.222 HD
DOCKED: ENDBRANCH  15  19
DOCKED: ENDBRANCH  14  15
DOCKED: ENDBRANCH   2  14
DOCKED: BRANCH   6  21
DOCKED: ATOM     21  O   UNL d   1      19.260   1.177  -8.193 -0.06 -0.01    -0.278 OA
DOCKED: BRANCH  21  22
DOCKED: ATOM     22  P   UNL d   1      20.295   2.388  -8.256 -0.01 +0.01    +0.473 P 
DOCKED: ATOM     23  O   UNL d   1      20.153   3.490  -7.260 -0.01 -0.01    -0.228 OA
DOCKED: BRANCH  22  24
DOCKED: ATOM     24  O   UNL d   1      21.692   1.626  -8.212 -0.02 -0.01    -0.303 OA
DOCKED: ATOM     25  H   UNL d   1      21.610   0.870  -7.576 +0.02 +0.01    +0.222 HD
DOCKED: ENDBRANCH  22  24
DOCKED: BRANCH  22  26
DOCKED: ATOM     26  O   UNL d   1      20.201   2.818  -9.797 -0.00 -0.01    -0.303 OA
DOCKED: ATOM     27  H   UNL d   1      20.614   3.698  -9.912 +0.00 +0.01    +0.222 HD
DOCKED: ENDBRANCH  22  26
DOCKED: ENDBRANCH  21  22
DOCKED: ENDBRANCH   6  21
DOCKED: BRANCH   3  28
DOCKED: ATOM     28  O   UNL d   1      16.968   1.866  -3.230 -0.28 +0.03    -0.278 OA
DOCKED: BRANCH  28  29
DOCKED: ATOM     29  P   UNL d   1      17.055   2.843  -1.975 -0.06 +0.00    +0.473 P 
DOCKED: ATOM     30  O   UNL d   1      16.406   4.168  -2.150 -0.09 -0.01    -0.228 OA
DOCKED: BRANCH  29  31
DOCKED: ATOM     31  O   UNL d   1      16.463   1.889  -0.836 -0.10 +0.01    -0.303 OA
DOCKED: ATOM     32  H   UNL d   1      17.077   1.129  -0.712 +0.05 -0.02    +0.222 HD
DOCKED: ENDBRANCH  29  31
DOCKED: BRANCH  29  33
DOCKED: ATOM     33  O   UNL d   1      18.616   2.843  -1.659 -0.01 +0.00    -0.303 OA
DOCKED: ATOM     34  H   UNL d   1      18.989   1.955  -1.883 +0.02 -0.01    +0.222 HD
DOCKED: ENDBRANCH  29  33
DOCKED: ENDBRANCH  28  29
DOCKED: ENDBRANCH   3  28
DOCKED: BRANCH   5  35
DOCKED: ATOM     35  O   UNL d   1      16.381   1.490  -7.811 -0.11 -0.00    -0.278 OA
DOCKED: BRANCH  35  36
DOCKED: ATOM     36  P   UNL d   1      16.080  -0.070  -7.957 -0.27 -0.01    +0.473 P 
DOCKED: ATOM     37  O   UNL d   1      16.213  -0.873  -6.703 -0.39 +0.01    -0.228 OA
DOCKED: BRANCH  36  38
DOCKED: ATOM     38  O   UNL d   1      14.613  -0.061  -8.576 -0.25 -0.01    -0.303 OA
DOCKED: ATOM     39  H   UNL d   1      14.006  -0.539  -7.971 +0.12 +0.00    +0.222 HD
DOCKED: ENDBRANCH  36  38
DOCKED: BRANCH  36  40
DOCKED: ATOM     40  O   UNL d   1      17.009  -0.482  -9.181 -0.21 -0.00    -0.303 OA
DOCKED: ATOM     41  H   UNL d   1      17.771   0.132  -9.283 +0.07 +0.01    +0.222 HD
DOCKED: ENDBRANCH  36  40
DOCKED: ENDBRANCH  35  36
DOCKED: ENDBRANCH   5  35
DOCKED: BRANCH   4  42
DOCKED: ATOM     42  O   UNL d   1      16.007   3.282  -5.544 -0.10 -0.00    -0.278 OA
DOCKED: BRANCH  42  43
DOCKED: ATOM     43  P   UNL d   1      16.731   4.626  -6.004 -0.02 +0.01    +0.473 P 
DOCKED: ATOM     44  O   UNL d   1      16.521   5.073  -7.409 -0.00 -0.01    -0.228 OA
DOCKED: BRANCH  43  45
DOCKED: ATOM     45  O   UNL d   1      16.250   5.675  -4.908 -0.01 -0.01    -0.303 OA
DOCKED: ATOM     46  H   UNL d   1      16.222   5.273  -4.017 +0.01 +0.01    +0.222 HD
DOCKED: ENDBRANCH  43  45
DOCKED: BRANCH  43  47
DOCKED: ATOM     47  O   UNL d   1      18.257   4.385  -5.577 -0.01 -0.00    -0.303 OA
DOCKED: ATOM     48  H   UNL d   1      18.844   4.639  -6.319 +0.01 +0.00    +0.222 HD
DOCKED: ENDBRANCH  43  47
DOCKED: ENDBRANCH  42  43
DOCKED: ENDBRANCH   4  42
DOCKED: TORSDOF 24
DOCKED: TER
DOCKED: ENDMDL
________________________________________________________________________________


	BEGINNING GENETIC ALGORITHM DOCKING 41 of 100
Run: 41 Seed: 355310200 1519972581 [ Run 41 of 100 GA/GALS ]
Beginning LAMARCKIAN GENETIC ALGORITHM (LGA), with a maximum of 25000000 energy evaluations.

Final-Value: -16.058


	FINAL GENETIC ALGORITHM DOCKED STATE
	_______________________________________________


Detailed state:  trans 14.906 -18.025 -10.215 quatxyzw 0.101985 -0.985473 0.135798 -0.001318 center 0.035 0.082 -0.065 ntor 24 154.2500 105.8022 32.6509 -16.6402 59.2465 8.5705 -91.4197 1.0457 155.8994 8.0266 117.5992 172.1889 139.3473 168.4325 128.9309 5.6095 108.3156 -130.1299 7.1503 -29.3258 151.7232 -47.9623 -51.6715 153.8546
State:	 14.906 -18.025 -10.215   0.102 -0.985  0.136 -179.849    154.25  105.80   32.65  -16.64   59.25    8.57  -91.42    1.05  155.90    8.03  117.60  172.19  139.35  168.43  128.93    5.61  108.32 -130.13    7.15  -29.33  151.72  -47.96  -51.67  153.85

DOCKED: MODEL       41
DOCKED: USER    Run = 41
DOCKED: USER    DPF = D:/Protein_go_brrr/autodock/final/mut_D99N/IHP/dock.dpf
DOCKED: USER  
DOCKED: USER    Estimated Free Energy of Binding    =   +5.50 kcal/mol  [=(1)+(2)+(3)-(4)]
DOCKED: USER    
DOCKED: USER    (1) Final Intermolecular Energy     =   -1.66 kcal/mol
DOCKED: USER        vdW + Hbond + desolv Energy     =   -1.60 kcal/mol
DOCKED: USER        Electrostatic Energy            =   -0.05 kcal/mol
DOCKED: USER    (2) Final Total Internal Energy     =  -14.40 kcal/mol
DOCKED: USER    (3) Torsional Free Energy           =   +7.16 kcal/mol
DOCKED: USER    (4) Unbound System's Energy  [=(2)] =  -14.40 kcal/mol
DOCKED: USER    
DOCKED: USER    
DOCKED: USER    NEWDPF move IHP_ideal_opt.pdbqt
DOCKED: USER    NEWDPF about 0.035000 0.082000 -0.065000
DOCKED: USER    NEWDPF tran0 14.906063 -18.024634 -10.215393
DOCKED: USER    NEWDPF quaternion0 0.101985 -0.985473 0.135798 -0.001318
DOCKED: USER    NEWDPF axisangle0 0.101985 -0.985474 0.135798 -179.849010
DOCKED: USER    NEWDPF quat0 0.101985 -0.985474 0.135798 -179.849010
DOCKED: USER    NEWDPF dihe0 154.25 105.80 32.65 -16.64 59.25 8.57 -91.42 1.05 155.90 8.03 117.60 172.19 139.35 168.43 128.93 5.61 108.32 -130.13 7.15 -29.33 151.72 -47.96 -51.67 153.85 
DOCKED: USER  keepresnum = 1 
DOCKED: USER  
DOCKED: REMARK  24 active torsions:
DOCKED: REMARK  status: ('A' for Active; 'I' for Inactive)
DOCKED: REMARK    1  A    between atoms: C_1  and  O_7 
DOCKED: REMARK    2  A    between atoms: C_2  and  O_12 
DOCKED: REMARK    3  A    between atoms: C_3  and  O_17 
DOCKED: REMARK    4  A    between atoms: C_4  and  O_22 
DOCKED: REMARK    5  A    between atoms: C_5  and  O_27 
DOCKED: REMARK    6  A    between atoms: C_6  and  O_32 
DOCKED: REMARK    7  A    between atoms: O_7  and  P_8 
DOCKED: REMARK    8  A    between atoms: P_8  and  O_10 
DOCKED: REMARK    9  A    between atoms: P_8  and  O_11 
DOCKED: REMARK   10  A    between atoms: O_12  and  P_13 
DOCKED: REMARK   11  A    between atoms: P_13  and  O_15 
DOCKED: REMARK   12  A    between atoms: P_13  and  O_16 
DOCKED: REMARK   13  A    between atoms: O_17  and  P_18 
DOCKED: REMARK   14  A    between atoms: P_18  and  O_20 
DOCKED: REMARK   15  A    between atoms: P_18  and  O_21 
DOCKED: REMARK   16  A    between atoms: O_22  and  P_23 
DOCKED: REMARK   17  A    between atoms: P_23  and  O_25 
DOCKED: REMARK   18  A    between atoms: P_23  and  O_26 
DOCKED: REMARK   19  A    between atoms: O_27  and  P_28 
DOCKED: REMARK   20  A    between atoms: P_28  and  O_30 
DOCKED: REMARK   21  A    between atoms: P_28  and  O_31 
DOCKED: REMARK   22  A    between atoms: O_32  and  P_33 
DOCKED: REMARK   23  A    between atoms: P_33  and  O_35 
DOCKED: REMARK   24  A    between atoms: P_33  and  O_36 
DOCKED: USER                              x       y       z     vdW  Elec       q    Type
DOCKED: USER                           _______ _______ _______ _____ _____    ______ ____
DOCKED: ROOT
DOCKED: ATOM      1  C   UNL d   1      13.878 -19.325 -10.702 -0.03 -0.00    +0.194 C 
DOCKED: ATOM      2  C   UNL d   1      15.252 -19.733 -10.169 -0.00 -0.00    +0.194 C 
DOCKED: ATOM      3  C   UNL d   1      16.363 -18.835 -10.718 -0.00 -0.01    +0.194 C 
DOCKED: ATOM      4  C   UNL d   1      16.085 -17.346 -10.520 -0.01 -0.01    +0.194 C 
DOCKED: ATOM      5  C   UNL d   1      14.683 -16.916 -10.931 -0.07 -0.01    +0.194 C 
DOCKED: ATOM      6  C   UNL d   1      13.578 -17.849 -10.434 -0.07 +0.01    +0.194 C 
DOCKED: ENDROOT
DOCKED: BRANCH   1   7
DOCKED: ATOM      7  O   UNL d   1      12.887 -20.093 -10.015 -0.02 -0.00    -0.278 OA
DOCKED: BRANCH   7   8
DOCKED: ATOM      8  P   UNL d   1      12.007 -21.125 -10.858 -0.01 -0.00    +0.473 P 
DOCKED: ATOM      9  O   UNL d   1      10.837 -21.695 -10.135 -0.01 +0.00    -0.228 OA
DOCKED: BRANCH   8  10
DOCKED: ATOM     10  O   UNL d   1      11.599 -20.307 -12.166 -0.02 +0.00    -0.303 OA
DOCKED: ATOM     11  H   UNL d   1      11.930 -19.392 -12.096 +0.03 +0.01    +0.222 HD
DOCKED: ENDBRANCH   8  10
DOCKED: BRANCH   8  12
DOCKED: ATOM     12  O   UNL d   1      13.046 -22.179 -11.436 +0.00 +0.01    -0.303 OA
DOCKED: ATOM     13  H   UNL d   1      13.536 -22.662 -10.733 +0.00 -0.00    +0.222 HD
DOCKED: ENDBRANCH   8  12
DOCKED: ENDBRANCH   7   8
DOCKED: ENDBRANCH   1   7
DOCKED: BRANCH   2  14
DOCKED: ATOM     14  O   UNL d   1      15.248 -19.632  -8.740 -0.00 +0.00    -0.278 OA
DOCKED: BRANCH  14  15
DOCKED: ATOM     15  P   UNL d   1      15.105 -21.003  -7.926 +0.00 +0.00    +0.473 P 
DOCKED: ATOM     16  O   UNL d   1      14.162 -20.999  -6.764 -0.00 -0.00    -0.228 OA
DOCKED: BRANCH  15  17
DOCKED: ATOM     17  O   UNL d   1      14.711 -22.075  -9.037 +0.00 +0.00    -0.303 OA
DOCKED: ATOM     18  H   UNL d   1      13.850 -21.859  -9.443 +0.00 -0.00    +0.222 HD
DOCKED: ENDBRANCH  15  17
DOCKED: BRANCH  15  19
DOCKED: ATOM     19  O   UNL d   1      16.602 -21.425  -7.592 +0.00 -0.00    -0.303 OA
DOCKED: ATOM     20  H   UNL d   1      17.054 -21.798  -8.371 +0.00 -0.00    +0.222 HD
DOCKED: ENDBRANCH  15  19
DOCKED: ENDBRANCH  14  15
DOCKED: ENDBRANCH   2  14
DOCKED: BRANCH   6  21
DOCKED: ATOM     21  O   UNL d   1      12.400 -17.522 -11.168 -0.45 -0.09    -0.278 OA
DOCKED: BRANCH  21  22
DOCKED: ATOM     22  P   UNL d   1      12.465 -17.406 -12.758 -0.12 -0.01    +0.473 P 
DOCKED: ATOM     23  O   UNL d   1      11.194 -17.537 -13.527 -0.20 +0.02    -0.228 OA
DOCKED: BRANCH  22  24
DOCKED: ATOM     24  O   UNL d   1      13.223 -16.021 -12.953 -0.22 +0.03    -0.303 OA
DOCKED: ATOM     25  H   UNL d   1      13.325 -15.597 -12.062 +0.07 -0.01    +0.222 HD
DOCKED: ENDBRANCH  22  24
DOCKED: BRANCH  22  26
DOCKED: ATOM     26  O   UNL d   1      13.615 -18.465 -13.115 -0.03 +0.03    -0.303 OA
DOCKED: ATOM     27  H   UNL d   1      13.909 -18.322 -14.037 +0.04 -0.04    +0.222 HD
DOCKED: ENDBRANCH  22  26
DOCKED: ENDBRANCH  21  22
DOCKED: ENDBRANCH   6  21
DOCKED: BRANCH   3  28
DOCKED: ATOM     28  O   UNL d   1      17.541 -19.102  -9.968 +0.00 +0.00    -0.278 OA
DOCKED: BRANCH  28  29
DOCKED: ATOM     29  P   UNL d   1      18.202 -20.551  -9.999 +0.00 -0.01    +0.473 P 
DOCKED: ATOM     30  O   UNL d   1      17.306 -21.655 -10.430 +0.00 +0.00    -0.228 OA
DOCKED: BRANCH  29  31
DOCKED: ATOM     31  O   UNL d   1      19.481 -20.254 -10.915 +0.00 +0.00    -0.303 OA
DOCKED: ATOM     32  H   UNL d   1      19.212 -19.645 -11.641 +0.00 -0.01    +0.222 HD
DOCKED: ENDBRANCH  29  31
DOCKED: BRANCH  29  33
DOCKED: ATOM     33  O   UNL d   1      18.832 -20.661  -8.541 +0.00 +0.00    -0.303 OA
DOCKED: ATOM     34  H   UNL d   1      18.109 -20.580  -7.872 +0.00 -0.00    +0.222 HD
DOCKED: ENDBRANCH  29  33
DOCKED: ENDBRANCH  28  29
DOCKED: ENDBRANCH   3  28
DOCKED: BRANCH   5  35
DOCKED: ATOM     35  O   UNL d   1      14.471 -15.648 -10.315 -0.09 +0.01    -0.278 OA
DOCKED: BRANCH  35  36
DOCKED: ATOM     36  P   UNL d   1      15.103 -14.328 -10.951 -0.11 -0.03    +0.473 P 
DOCKED: ATOM     37  O   UNL d   1      14.363 -13.059 -10.669 -0.26 +0.02    -0.228 OA
DOCKED: BRANCH  36  38
DOCKED: ATOM     38  O   UNL d   1      16.585 -14.364 -10.371 -0.02 +0.01    -0.303 OA
DOCKED: ATOM     39  H   UNL d   1      17.146 -14.916 -10.958 +0.03 -0.01    +0.222 HD
DOCKED: ENDBRANCH  36  38
DOCKED: BRANCH  36  40
DOCKED: ATOM     40  O   UNL d   1      15.278 -14.737 -12.478 -0.11 +0.02    -0.303 OA
DOCKED: ATOM     41  H   UNL d   1      15.493 -15.691 -12.577 +0.05 -0.02    +0.222 HD
DOCKED: ENDBRANCH  36  40
DOCKED: ENDBRANCH  35  36
DOCKED: ENDBRANCH   5  35
DOCKED: BRANCH   4  42
DOCKED: ATOM     42  O   UNL d   1      17.006 -16.638 -11.356 -0.01 +0.01    -0.278 OA
DOCKED: BRANCH  42  43
DOCKED: ATOM     43  P   UNL d   1      17.268 -17.169 -12.837 -0.00 -0.04    +0.473 P 
DOCKED: ATOM     44  O   UNL d   1      18.281 -18.247 -13.011 -0.00 +0.01    -0.228 OA
DOCKED: BRANCH  43  45
DOCKED: ATOM     45  O   UNL d   1      15.807 -17.563 -13.331 -0.02 +0.04    -0.303 OA
DOCKED: ATOM     46  H   UNL d   1      15.153 -16.875 -13.096 +0.04 -0.03    +0.222 HD
DOCKED: ENDBRANCH  43  45
DOCKED: BRANCH  43  47
DOCKED: ATOM     47  O   UNL d   1      17.541 -15.824 -13.666 -0.03 +0.03    -0.303 OA
DOCKED: ATOM     48  H   UNL d   1      17.339 -15.050 -13.100 +0.03 -0.02    +0.222 HD
DOCKED: ENDBRANCH  43  47
DOCKED: ENDBRANCH  42  43
DOCKED: ENDBRANCH   4  42
DOCKED: TORSDOF 24
DOCKED: TER
DOCKED: ENDMDL
________________________________________________________________________________


	BEGINNING GENETIC ALGORITHM DOCKING 42 of 100
Run: 42 Seed: 19914446 1557961158 [ Run 42 of 100 GA/GALS ]
Beginning LAMARCKIAN GENETIC ALGORITHM (LGA), with a maximum of 25000000 energy evaluations.

Final-Value: -19.438


	FINAL GENETIC ALGORITHM DOCKED STATE
	_______________________________________________


Detailed state:  trans 15.904 -14.775 -2.518 quatxyzw -0.711858 -0.657161 0.211519 0.129064 center 0.035 0.082 -0.065 ntor 24 -72.7311 23.6383 -179.3570 4.3284 -168.4887 92.8091 9.8986 -134.4074 128.2983 24.0422 110.1650 -29.4023 -133.5001 82.7394 78.5417 -123.8687 106.1784 47.0526 21.1817 -45.1477 169.3188 33.1939 -15.6646 -177.8785
State:	 15.904 -14.775  -2.518  -0.718 -0.663  0.213 165.169    -72.73   23.64 -179.36    4.33 -168.49   92.81    9.90 -134.41  128.30   24.04  110.17  -29.40 -133.50   82.74   78.54 -123.87  106.18   47.05   21.18  -45.15  169.32   33.19  -15.66 -177.88

DOCKED: MODEL       42
DOCKED: USER    Run = 42
DOCKED: USER    DPF = D:/Protein_go_brrr/autodock/final/mut_D99N/IHP/dock.dpf
DOCKED: USER  
DOCKED: USER    Estimated Free Energy of Binding    =   +2.43 kcal/mol  [=(1)+(2)+(3)-(4)]
DOCKED: USER    
DOCKED: USER    (1) Final Intermolecular Energy     =   -4.73 kcal/mol
DOCKED: USER        vdW + Hbond + desolv Energy     =   -4.49 kcal/mol
DOCKED: USER        Electrostatic Energy            =   -0.25 kcal/mol
DOCKED: USER    (2) Final Total Internal Energy     =  -14.70 kcal/mol
DOCKED: USER    (3) Torsional Free Energy           =   +7.16 kcal/mol
DOCKED: USER    (4) Unbound System's Energy  [=(2)] =  -14.70 kcal/mol
DOCKED: USER    
DOCKED: USER    
DOCKED: USER    NEWDPF move IHP_ideal_opt.pdbqt
DOCKED: USER    NEWDPF about 0.035000 0.082000 -0.065000
DOCKED: USER    NEWDPF tran0 15.903770 -14.774790 -2.517610
DOCKED: USER    NEWDPF quaternion0 -0.711858 -0.657161 0.211519 0.129064
DOCKED: USER    NEWDPF axisangle0 -0.717862 -0.662703 0.213303 165.169041
DOCKED: USER    NEWDPF quat0 -0.717862 -0.662703 0.213303 165.169041
DOCKED: USER    NEWDPF dihe0 -72.73 23.64 -179.36 4.33 -168.49 92.81 9.90 -134.41 128.30 24.04 110.17 -29.40 -133.50 82.74 78.54 -123.87 106.18 47.05 21.18 -45.15 169.32 33.19 -15.66 -177.88 
DOCKED: USER  keepresnum = 1 
DOCKED: USER  
DOCKED: REMARK  24 active torsions:
DOCKED: REMARK  status: ('A' for Active; 'I' for Inactive)
DOCKED: REMARK    1  A    between atoms: C_1  and  O_7 
DOCKED: REMARK    2  A    between atoms: C_2  and  O_12 
DOCKED: REMARK    3  A    between atoms: C_3  and  O_17 
DOCKED: REMARK    4  A    between atoms: C_4  and  O_22 
DOCKED: REMARK    5  A    between atoms: C_5  and  O_27 
DOCKED: REMARK    6  A    between atoms: C_6  and  O_32 
DOCKED: REMARK    7  A    between atoms: O_7  and  P_8 
DOCKED: REMARK    8  A    between atoms: P_8  and  O_10 
DOCKED: REMARK    9  A    between atoms: P_8  and  O_11 
DOCKED: REMARK   10  A    between atoms: O_12  and  P_13 
DOCKED: REMARK   11  A    between atoms: P_13  and  O_15 
DOCKED: REMARK   12  A    between atoms: P_13  and  O_16 
DOCKED: REMARK   13  A    between atoms: O_17  and  P_18 
DOCKED: REMARK   14  A    between atoms: P_18  and  O_20 
DOCKED: REMARK   15  A    between atoms: P_18  and  O_21 
DOCKED: REMARK   16  A    between atoms: O_22  and  P_23 
DOCKED: REMARK   17  A    between atoms: P_23  and  O_25 
DOCKED: REMARK   18  A    between atoms: P_23  and  O_26 
DOCKED: REMARK   19  A    between atoms: O_27  and  P_28 
DOCKED: REMARK   20  A    between atoms: P_28  and  O_30 
DOCKED: REMARK   21  A    between atoms: P_28  and  O_31 
DOCKED: REMARK   22  A    between atoms: O_32  and  P_33 
DOCKED: REMARK   23  A    between atoms: P_33  and  O_35 
DOCKED: REMARK   24  A    between atoms: P_33  and  O_36 
DOCKED: USER                              x       y       z     vdW  Elec       q    Type
DOCKED: USER                           _______ _______ _______ _____ _____    ______ ____
DOCKED: ROOT
DOCKED: ATOM      1  C   UNL d   1      14.979 -13.945  -3.718 -0.12 +0.00    +0.194 C 
DOCKED: ATOM      2  C   UNL d   1      14.173 -14.791  -2.731 -0.19 +0.04    +0.194 C 
DOCKED: ATOM      3  C   UNL d   1      14.834 -16.147  -2.476 -0.10 +0.07    +0.194 C 
DOCKED: ATOM      4  C   UNL d   1      16.303 -16.035  -2.075 -0.07 +0.02    +0.194 C 
DOCKED: ATOM      5  C   UNL d   1      17.120 -15.108  -2.966 -0.04 +0.00    +0.194 C 
DOCKED: ATOM      6  C   UNL d   1      16.432 -13.776  -3.271 -0.11 -0.01    +0.194 C 
DOCKED: ENDROOT
DOCKED: BRANCH   1   7
DOCKED: ATOM      7  O   UNL d   1      14.395 -12.641  -3.768 -0.18 +0.01    -0.278 OA
DOCKED: BRANCH   7   8
DOCKED: ATOM      8  P   UNL d   1      13.450 -12.280  -5.005 -0.17 -0.01    +0.473 P 
DOCKED: ATOM      9  O   UNL d   1      14.163 -11.863  -6.243 -0.15 -0.01    -0.228 OA
DOCKED: BRANCH   8  10
DOCKED: ATOM     10  O   UNL d   1      12.557 -13.586  -5.204 -0.28 +0.00    -0.303 OA
DOCKED: ATOM     11  H   UNL d   1      11.615 -13.336  -5.244 -0.36 -0.03    +0.222 HD
DOCKED: ENDBRANCH   8  10
DOCKED: BRANCH   8  12
DOCKED: ATOM     12  O   UNL d   1      12.395 -11.240  -4.429 -0.40 +0.04    -0.303 OA
DOCKED: ATOM     13  H   UNL d   1      12.302 -11.288  -3.450 +0.17 -0.02    +0.222 HD
DOCKED: ENDBRANCH   8  12
DOCKED: ENDBRANCH   7   8
DOCKED: ENDBRANCH   1   7
DOCKED: BRANCH   2  14
DOCKED: ATOM     14  O   UNL d   1      14.076 -14.089  -1.485 -0.44 -0.05    -0.278 OA
DOCKED: BRANCH  14  15
DOCKED: ATOM     15  P   UNL d   1      12.870 -13.045  -1.344 -0.30 +0.05    +0.473 P 
DOCKED: ATOM     16  O   UNL d   1      12.142 -13.032  -0.036 -0.83 -0.05    -0.228 OA
DOCKED: BRANCH  15  17
DOCKED: ATOM     17  O   UNL d   1      13.531 -11.640  -1.696 -0.29 +0.05    -0.303 OA
DOCKED: ATOM     18  H   UNL d   1      13.541 -11.488  -2.661 +0.14 -0.03    +0.222 HD
DOCKED: ENDBRANCH  15  17
DOCKED: BRANCH  15  19
DOCKED: ATOM     19  O   UNL d   1      11.968 -13.305  -2.628 -0.28 -0.03    -0.303 OA
DOCKED: ATOM     20  H   UNL d   1      12.483 -13.226  -3.452 +0.13 +0.01    +0.222 HD
DOCKED: ENDBRANCH  15  19
DOCKED: ENDBRANCH  14  15
DOCKED: ENDBRANCH   2  14
DOCKED: BRANCH   6  21
DOCKED: ATOM     21  O   UNL d   1      17.139 -13.187  -4.359 -0.05 +0.00    -0.278 OA
DOCKED: BRANCH  21  22
DOCKED: ATOM     22  P   UNL d   1      17.092 -13.874  -5.799 +0.00 +0.00    +0.473 P 
DOCKED: ATOM     23  O   UNL d   1      16.313 -13.199  -6.877 -0.06 -0.00    -0.228 OA
DOCKED: BRANCH  22  24
DOCKED: ATOM     24  O   UNL d   1      18.639 -14.070  -6.116 -0.01 -0.00    -0.303 OA
DOCKED: ATOM     25  H   UNL d   1      18.792 -15.026  -6.327 +0.01 +0.00    +0.222 HD
DOCKED: ENDBRANCH  22  24
DOCKED: BRANCH  22  26
DOCKED: ATOM     26  O   UNL d   1      16.637 -15.367  -5.432 -0.00 -0.01    -0.303 OA
DOCKED: ATOM     27  H   UNL d   1      17.418 -15.877  -5.134 +0.01 +0.00    +0.222 HD
DOCKED: ENDBRANCH  22  26
DOCKED: ENDBRANCH  21  22
DOCKED: ENDBRANCH   6  21
DOCKED: BRANCH   3  28
DOCKED: ATOM     28  O   UNL d   1      14.182 -16.739  -1.359 -0.34 -0.35    -0.278 OA
DOCKED: BRANCH  28  29
DOCKED: ATOM     29  P   UNL d   1      13.943 -18.312  -1.308 +0.02 +0.32    +0.473 P 
DOCKED: ATOM     30  O   UNL d   1      12.738 -18.753  -0.559 -0.19 -0.16    -0.228 OA
DOCKED: BRANCH  29  31
DOCKED: ATOM     31  O   UNL d   1      13.992 -18.654  -2.870 -0.02 -0.07    -0.303 OA
DOCKED: ATOM     32  H   UNL d   1      14.883 -18.412  -3.216 +0.02 +0.04    +0.222 HD
DOCKED: ENDBRANCH  29  31
DOCKED: BRANCH  29  33
DOCKED: ATOM     33  O   UNL d   1      15.349 -18.847  -0.786 -0.06 -0.10    -0.303 OA
DOCKED: ATOM     34  H   UNL d   1      16.003 -18.804  -1.526 +0.02 +0.04    +0.222 HD
DOCKED: ENDBRANCH  29  33
DOCKED: ENDBRANCH  28  29
DOCKED: ENDBRANCH   3  28
DOCKED: BRANCH   5  35
DOCKED: ATOM     35  O   UNL d   1      18.305 -14.810  -2.230 -0.03 +0.00    -0.278 OA
DOCKED: BRANCH  35  36
DOCKED: ATOM     36  P   UNL d   1      19.727 -15.299  -2.762 +0.01 +0.00    +0.473 P 
DOCKED: ATOM     37  O   UNL d   1      20.888 -14.435  -2.385 -0.01 -0.00    -0.228 OA
DOCKED: BRANCH  36  38
DOCKED: ATOM     38  O   UNL d   1      19.799 -16.781  -2.185 +0.00 -0.01    -0.303 OA
DOCKED: ATOM     39  H   UNL d   1      19.034 -17.295  -2.522 +0.01 +0.01    +0.222 HD
DOCKED: ENDBRANCH  36  38
DOCKED: BRANCH  36  40
DOCKED: ATOM     40  O   UNL d   1      19.456 -15.506  -4.315 -0.00 -0.00    -0.303 OA
DOCKED: ATOM     41  H   UNL d   1      18.495 -15.567  -4.512 +0.01 +0.00    +0.222 HD
DOCKED: ENDBRANCH  36  40
DOCKED: ENDBRANCH  35  36
DOCKED: ENDBRANCH   5  35
DOCKED: BRANCH   4  42
DOCKED: ATOM     42  O   UNL d   1      16.868 -17.344  -2.199 -0.01 -0.03    -0.278 OA
DOCKED: BRANCH  42  43
DOCKED: ATOM     43  P   UNL d   1      17.093 -17.953  -3.656 +0.01 +0.03    +0.473 P 
DOCKED: ATOM     44  O   UNL d   1      18.424 -17.743  -4.290 +0.00 -0.01    -0.228 OA
DOCKED: BRANCH  43  45
DOCKED: ATOM     45  O   UNL d   1      16.699 -19.482  -3.460 +0.00 -0.02    -0.303 OA
DOCKED: ATOM     46  H   UNL d   1      15.944 -19.582  -2.846 +0.01 +0.02    +0.222 HD
DOCKED: ENDBRANCH  43  45
DOCKED: BRANCH  43  47
DOCKED: ATOM     47  O   UNL d   1      15.837 -17.396  -4.483 +0.00 -0.02    -0.303 OA
DOCKED: ATOM     48  H   UNL d   1      16.094 -17.282  -5.421 +0.01 +0.01    +0.222 HD
DOCKED: ENDBRANCH  43  47
DOCKED: ENDBRANCH  42  43
DOCKED: ENDBRANCH   4  42
DOCKED: TORSDOF 24
DOCKED: TER
DOCKED: ENDMDL
________________________________________________________________________________


	BEGINNING GENETIC ALGORITHM DOCKING 43 of 100
Run: 43 Seed: 39934621 1690310599 [ Run 43 of 100 GA/GALS ]
Beginning LAMARCKIAN GENETIC ALGORITHM (LGA), with a maximum of 25000000 energy evaluations.

Final-Value: -17.413


	FINAL GENETIC ALGORITHM DOCKED STATE
	_______________________________________________


Detailed state:  trans -0.250 -15.826 -7.288 quatxyzw -0.438542 -0.744013 -0.124375 0.488524 center 0.035 0.082 -0.065 ntor 24 177.4752 27.1389 60.4838 51.5222 32.3350 -103.7815 -118.9690 109.1428 67.3906 -5.4227 -20.2927 -144.9295 56.1021 153.5542 -53.6886 15.1080 116.6341 -170.9350 27.5422 -13.9696 -177.0207 53.2752 7.3414 -36.7024
State:	 -0.250 -15.826  -7.288  -0.503 -0.853 -0.143 121.513    177.48   27.14   60.48   51.52   32.34 -103.78 -118.97  109.14   67.39   -5.42  -20.29 -144.93   56.10  153.55  -53.69   15.11  116.63 -170.94   27.54  -13.97 -177.02   53.28    7.34  -36.70

DOCKED: MODEL       43
DOCKED: USER    Run = 43
DOCKED: USER    DPF = D:/Protein_go_brrr/autodock/final/mut_D99N/IHP/dock.dpf
DOCKED: USER  
DOCKED: USER    Estimated Free Energy of Binding    =   +2.35 kcal/mol  [=(1)+(2)+(3)-(4)]
DOCKED: USER    
DOCKED: USER    (1) Final Intermolecular Energy     =   -4.81 kcal/mol
DOCKED: USER        vdW + Hbond + desolv Energy     =   -4.64 kcal/mol
DOCKED: USER        Electrostatic Energy            =   -0.17 kcal/mol
DOCKED: USER    (2) Final Total Internal Energy     =  -12.60 kcal/mol
DOCKED: USER    (3) Torsional Free Energy           =   +7.16 kcal/mol
DOCKED: USER    (4) Unbound System's Energy  [=(2)] =  -12.60 kcal/mol
DOCKED: USER    
DOCKED: USER    
DOCKED: USER    NEWDPF move IHP_ideal_opt.pdbqt
DOCKED: USER    NEWDPF about 0.035000 0.082000 -0.065000
DOCKED: USER    NEWDPF tran0 -0.250316 -15.826111 -7.288126
DOCKED: USER    NEWDPF quaternion0 -0.438542 -0.744013 -0.124375 0.488524
DOCKED: USER    NEWDPF axisangle0 -0.502598 -0.852688 -0.142542 121.512761
DOCKED: USER    NEWDPF quat0 -0.502598 -0.852688 -0.142542 121.512761
DOCKED: USER    NEWDPF dihe0 177.48 27.14 60.48 51.52 32.34 -103.78 -118.97 109.14 67.39 -5.42 -20.29 -144.93 56.10 153.55 -53.69 15.11 116.63 -170.94 27.54 -13.97 -177.02 53.28 7.34 -36.70 
DOCKED: USER  keepresnum = 1 
DOCKED: USER  
DOCKED: REMARK  24 active torsions:
DOCKED: REMARK  status: ('A' for Active; 'I' for Inactive)
DOCKED: REMARK    1  A    between atoms: C_1  and  O_7 
DOCKED: REMARK    2  A    between atoms: C_2  and  O_12 
DOCKED: REMARK    3  A    between atoms: C_3  and  O_17 
DOCKED: REMARK    4  A    between atoms: C_4  and  O_22 
DOCKED: REMARK    5  A    between atoms: C_5  and  O_27 
DOCKED: REMARK    6  A    between atoms: C_6  and  O_32 
DOCKED: REMARK    7  A    between atoms: O_7  and  P_8 
DOCKED: REMARK    8  A    between atoms: P_8  and  O_10 
DOCKED: REMARK    9  A    between atoms: P_8  and  O_11 
DOCKED: REMARK   10  A    between atoms: O_12  and  P_13 
DOCKED: REMARK   11  A    between atoms: P_13  and  O_15 
DOCKED: REMARK   12  A    between atoms: P_13  and  O_16 
DOCKED: REMARK   13  A    between atoms: O_17  and  P_18 
DOCKED: REMARK   14  A    between atoms: P_18  and  O_20 
DOCKED: REMARK   15  A    between atoms: P_18  and  O_21 
DOCKED: REMARK   16  A    between atoms: O_22  and  P_23 
DOCKED: REMARK   17  A    between atoms: P_23  and  O_25 
DOCKED: REMARK   18  A    between atoms: P_23  and  O_26 
DOCKED: REMARK   19  A    between atoms: O_27  and  P_28 
DOCKED: REMARK   20  A    between atoms: P_28  and  O_30 
DOCKED: REMARK   21  A    between atoms: P_28  and  O_31 
DOCKED: REMARK   22  A    between atoms: O_32  and  P_33 
DOCKED: REMARK   23  A    between atoms: P_33  and  O_35 
DOCKED: REMARK   24  A    between atoms: P_33  and  O_36 
DOCKED: USER                              x       y       z     vdW  Elec       q    Type
DOCKED: USER                           _______ _______ _______ _____ _____    ______ ____
DOCKED: ROOT
DOCKED: ATOM      1  C   UNL d   1      -0.234 -15.568  -8.996 -0.17 +0.01    +0.194 C 
DOCKED: ATOM      2  C   UNL d   1      -0.797 -16.914  -8.537 -0.07 +0.00    +0.194 C 
DOCKED: ATOM      3  C   UNL d   1       0.054 -17.535  -7.427 -0.04 +0.00    +0.194 C 
DOCKED: ATOM      4  C   UNL d   1       0.304 -16.584  -6.258 -0.07 -0.00    +0.194 C 
DOCKED: ATOM      5  C   UNL d   1       0.757 -15.192  -6.676 -0.19 -0.00    +0.194 C 
DOCKED: ATOM      6  C   UNL d   1      -0.055 -14.596  -7.829 -0.18 -0.01    +0.194 C 
DOCKED: ENDROOT
DOCKED: BRANCH   1   7
DOCKED: ATOM      7  O   UNL d   1      -1.170 -14.978  -9.901 -0.16 +0.01    -0.278 OA
DOCKED: BRANCH   7   8
DOCKED: ATOM      8  P   UNL d   1      -0.954 -15.201 -11.468 -0.09 +0.07    +0.473 P 
DOCKED: ATOM      9  O   UNL d   1      -1.924 -16.128 -12.113 -0.08 -0.01    -0.228 OA
DOCKED: BRANCH   8  10
DOCKED: ATOM     10  O   UNL d   1      -0.993 -13.728 -12.078 -0.41 -0.10    -0.303 OA
DOCKED: ATOM     11  H   UNL d   1      -0.822 -13.077 -11.372 +0.05 +0.03    +0.222 HD
DOCKED: ENDBRANCH   8  10
DOCKED: BRANCH   8  12
DOCKED: ATOM     12  O   UNL d   1       0.580 -15.585 -11.624 -0.10 -0.13    -0.303 OA
DOCKED: ATOM     13  H   UNL d   1       1.120 -15.338 -10.840 +0.08 +0.08    +0.222 HD
DOCKED: ENDBRANCH   8  12
DOCKED: ENDBRANCH   7   8
DOCKED: ENDBRANCH   1   7
DOCKED: BRANCH   2  14
DOCKED: ATOM     14  O   UNL d   1      -2.126 -16.718  -8.039 -0.08 +0.01    -0.278 OA
DOCKED: BRANCH  14  15
DOCKED: ATOM     15  P   UNL d   1      -3.302 -17.472  -8.822 -0.04 -0.02    +0.473 P 
DOCKED: ATOM     16  O   UNL d   1      -4.649 -16.820  -8.800 -0.10 +0.02    -0.228 OA
DOCKED: BRANCH  15  17
DOCKED: ATOM     17  O   UNL d   1      -2.729 -17.656 -10.297 -0.02 +0.01    -0.303 OA
DOCKED: ATOM     18  H   UNL d   1      -2.178 -16.893 -10.558 +0.04 -0.00    +0.222 HD
DOCKED: ENDBRANCH  15  17
DOCKED: BRANCH  15  19
DOCKED: ATOM     19  O   UNL d   1      -3.253 -18.964  -8.272 -0.01 +0.01    -0.303 OA
DOCKED: ATOM     20  H   UNL d   1      -2.472 -19.114  -7.708 +0.01 -0.00    +0.222 HD
DOCKED: ENDBRANCH  15  19
DOCKED: ENDBRANCH  14  15
DOCKED: ENDBRANCH   2  14
DOCKED: BRANCH   6  21
DOCKED: ATOM     21  O   UNL d   1       0.686 -13.482  -8.322 -0.19 +0.05    -0.278 OA
DOCKED: BRANCH  21  22
DOCKED: ATOM     22  P   UNL d   1       1.905 -13.721  -9.322 -0.18 +0.02    +0.473 P 
DOCKED: ATOM     23  O   UNL d   1       2.578 -15.053  -9.307 -0.26 -0.06    -0.228 OA
DOCKED: BRANCH  22  24
DOCKED: ATOM     24  O   UNL d   1       1.265 -13.312 -10.720 -0.21 -0.11    -0.303 OA
DOCKED: ATOM     25  H   UNL d   1       0.307 -13.565 -10.706 +0.03 +0.05    +0.222 HD
DOCKED: ENDBRANCH  22  24
DOCKED: BRANCH  22  26
DOCKED: ATOM     26  O   UNL d   1       2.840 -12.458  -9.003 -0.29 +0.05    -0.303 OA
DOCKED: ATOM     27  H   UNL d   1       3.378 -12.648  -8.208 -0.38 -0.12    +0.222 HD
DOCKED: ENDBRANCH  22  26
DOCKED: ENDBRANCH  21  22
DOCKED: ENDBRANCH   6  21
DOCKED: BRANCH   3  28
DOCKED: ATOM     28  O   UNL d   1      -0.683 -18.620  -6.879 -0.01 +0.00    -0.278 OA
DOCKED: BRANCH  28  29
DOCKED: ATOM     29  P   UNL d   1       0.045 -19.714  -5.978 -0.00 -0.00    +0.473 P 
DOCKED: ATOM     30  O   UNL d   1       1.529 -19.655  -5.974 -0.01 -0.00    -0.228 OA
DOCKED: BRANCH  29  31
DOCKED: ATOM     31  O   UNL d   1      -0.696 -19.464  -4.582 -0.00 +0.01    -0.303 OA
DOCKED: ATOM     32  H   UNL d   1      -0.437 -18.576  -4.244 +0.01 -0.01    +0.222 HD
DOCKED: ENDBRANCH  29  31
DOCKED: BRANCH  29  33
DOCKED: ATOM     33  O   UNL d   1      -0.620 -21.066  -6.492 -0.00 +0.00    -0.303 OA
DOCKED: ATOM     34  H   UNL d   1      -0.108 -21.832  -6.135 +0.00 -0.00    +0.222 HD
DOCKED: ENDBRANCH  29  33
DOCKED: ENDBRANCH  28  29
DOCKED: ENDBRANCH   3  28
DOCKED: BRANCH   5  35
DOCKED: ATOM     35  O   UNL d   1       0.546 -14.358  -5.539 -0.17 +0.01    -0.278 OA
DOCKED: BRANCH  35  36
DOCKED: ATOM     36  P   UNL d   1       1.639 -13.273  -5.122 -0.29 -0.02    +0.473 P 
DOCKED: ATOM     37  O   UNL d   1       1.153 -12.180  -4.225 -0.20 +0.01    -0.228 OA
DOCKED: BRANCH  36  38
DOCKED: ATOM     38  O   UNL d   1       2.777 -14.186  -4.484 -0.29 +0.00    -0.303 OA
DOCKED: ATOM     39  H   UNL d   1       2.478 -15.121  -4.486 +0.10 -0.00    +0.222 HD
DOCKED: ENDBRANCH  36  38
DOCKED: BRANCH  36  40
DOCKED: ATOM     40  O   UNL d   1       2.240 -12.839  -6.529 -0.37 +0.03    -0.303 OA
DOCKED: ATOM     41  H   UNL d   1       2.453 -13.617  -7.090 -0.10 -0.03    +0.222 HD
DOCKED: ENDBRANCH  36  40
DOCKED: ENDBRANCH  35  36
DOCKED: ENDBRANCH   5  35
DOCKED: BRANCH   4  42
DOCKED: ATOM     42  O   UNL d   1       1.360 -17.155  -5.478 -0.05 -0.00    -0.278 OA
DOCKED: BRANCH  42  43
DOCKED: ATOM     43  P   UNL d   1       1.367 -16.921  -3.901 -0.03 -0.01    +0.473 P 
DOCKED: ATOM     44  O   UNL d   1       2.596 -16.331  -3.299 -0.18 +0.01    -0.228 OA
DOCKED: BRANCH  43  45
DOCKED: ATOM     45  O   UNL d   1       0.050 -16.058  -3.670 -0.03 +0.02    -0.303 OA
DOCKED: ATOM     46  H   UNL d   1       0.244 -15.100  -3.681 +0.09 -0.01    +0.222 HD
DOCKED: ENDBRANCH  43  45
DOCKED: BRANCH  43  47
DOCKED: ATOM     47  O   UNL d   1       0.928 -18.348  -3.317 -0.01 +0.01    -0.303 OA
DOCKED: ATOM     48  H   UNL d   1       1.284 -19.056  -3.894 +0.02 -0.00    +0.222 HD
DOCKED: ENDBRANCH  43  47
DOCKED: ENDBRANCH  42  43
DOCKED: ENDBRANCH   4  42
DOCKED: TORSDOF 24
DOCKED: TER
DOCKED: ENDMDL
________________________________________________________________________________


	BEGINNING GENETIC ALGORITHM DOCKING 44 of 100
Run: 44 Seed: 1245522735 1713587781 [ Run 44 of 100 GA/GALS ]
Beginning LAMARCKIAN GENETIC ALGORITHM (LGA), with a maximum of 25000000 energy evaluations.

Final-Value: -16.496


	FINAL GENETIC ALGORITHM DOCKED STATE
	_______________________________________________


Detailed state:  trans 18.501 -2.305 6.920 quatxyzw -0.263943 0.657624 -0.146105 -0.690303 center 0.035 0.082 -0.065 ntor 24 105.6727 51.0450 158.0147 -7.8988 -155.6529 -140.2704 -143.3269 25.1263 107.7907 125.6267 -83.8154 -87.2507 -25.7111 83.6006 87.9703 17.6461 46.1681 3.9821 25.3366 -39.9932 2.7374 173.9688 177.7188 -26.7675
State:	 18.501  -2.305   6.920  -0.365  0.909 -0.202 -92.692    105.67   51.05  158.01   -7.90 -155.65 -140.27 -143.33   25.13  107.79  125.63  -83.82  -87.25  -25.71   83.60   87.97   17.65   46.17    3.98   25.34  -39.99    2.74  173.97  177.72  -26.77

DOCKED: MODEL       44
DOCKED: USER    Run = 44
DOCKED: USER    DPF = D:/Protein_go_brrr/autodock/final/mut_D99N/IHP/dock.dpf
DOCKED: USER  
DOCKED: USER    Estimated Free Energy of Binding    =   +3.39 kcal/mol  [=(1)+(2)+(3)-(4)]
DOCKED: USER    
DOCKED: USER    (1) Final Intermolecular Energy     =   -3.77 kcal/mol
DOCKED: USER        vdW + Hbond + desolv Energy     =   -3.71 kcal/mol
DOCKED: USER        Electrostatic Energy            =   -0.07 kcal/mol
DOCKED: USER    (2) Final Total Internal Energy     =  -12.72 kcal/mol
DOCKED: USER    (3) Torsional Free Energy           =   +7.16 kcal/mol
DOCKED: USER    (4) Unbound System's Energy  [=(2)] =  -12.72 kcal/mol
DOCKED: USER    
DOCKED: USER    
DOCKED: USER    NEWDPF move IHP_ideal_opt.pdbqt
DOCKED: USER    NEWDPF about 0.035000 0.082000 -0.065000
DOCKED: USER    NEWDPF tran0 18.501193 -2.304910 6.920315
DOCKED: USER    NEWDPF quaternion0 -0.263943 0.657624 -0.146105 -0.690303
DOCKED: USER    NEWDPF axisangle0 -0.364803 0.908923 -0.201936 -92.691827
DOCKED: USER    NEWDPF quat0 -0.364803 0.908923 -0.201936 -92.691827
DOCKED: USER    NEWDPF dihe0 105.67 51.05 158.01 -7.90 -155.65 -140.27 -143.33 25.13 107.79 125.63 -83.82 -87.25 -25.71 83.60 87.97 17.65 46.17 3.98 25.34 -39.99 2.74 173.97 177.72 -26.77 
DOCKED: USER  keepresnum = 1 
DOCKED: USER  
DOCKED: REMARK  24 active torsions:
DOCKED: REMARK  status: ('A' for Active; 'I' for Inactive)
DOCKED: REMARK    1  A    between atoms: C_1  and  O_7 
DOCKED: REMARK    2  A    between atoms: C_2  and  O_12 
DOCKED: REMARK    3  A    between atoms: C_3  and  O_17 
DOCKED: REMARK    4  A    between atoms: C_4  and  O_22 
DOCKED: REMARK    5  A    between atoms: C_5  and  O_27 
DOCKED: REMARK    6  A    between atoms: C_6  and  O_32 
DOCKED: REMARK    7  A    between atoms: O_7  and  P_8 
DOCKED: REMARK    8  A    between atoms: P_8  and  O_10 
DOCKED: REMARK    9  A    between atoms: P_8  and  O_11 
DOCKED: REMARK   10  A    between atoms: O_12  and  P_13 
DOCKED: REMARK   11  A    between atoms: P_13  and  O_15 
DOCKED: REMARK   12  A    between atoms: P_13  and  O_16 
DOCKED: REMARK   13  A    between atoms: O_17  and  P_18 
DOCKED: REMARK   14  A    between atoms: P_18  and  O_20 
DOCKED: REMARK   15  A    between atoms: P_18  and  O_21 
DOCKED: REMARK   16  A    between atoms: O_22  and  P_23 
DOCKED: REMARK   17  A    between atoms: P_23  and  O_25 
DOCKED: REMARK   18  A    between atoms: P_23  and  O_26 
DOCKED: REMARK   19  A    between atoms: O_27  and  P_28 
DOCKED: REMARK   20  A    between atoms: P_28  and  O_30 
DOCKED: REMARK   21  A    between atoms: P_28  and  O_31 
DOCKED: REMARK   22  A    between atoms: O_32  and  P_33 
DOCKED: REMARK   23  A    between atoms: P_33  and  O_35 
DOCKED: REMARK   24  A    between atoms: P_33  and  O_36 
DOCKED: USER                              x       y       z     vdW  Elec       q    Type
DOCKED: USER                           _______ _______ _______ _____ _____    ______ ____
DOCKED: ROOT
DOCKED: ATOM      1  C   UNL d   1      19.525  -3.583   6.370 -0.07 +0.01    +0.194 C 
DOCKED: ATOM      2  C   UNL d   1      19.163  -3.619   7.856 -0.03 +0.00    +0.194 C 
DOCKED: ATOM      3  C   UNL d   1      19.244  -2.230   8.493 -0.01 +0.00    +0.194 C 
DOCKED: ATOM      4  C   UNL d   1      18.450  -1.172   7.731 -0.03 +0.00    +0.194 C 
DOCKED: ATOM      5  C   UNL d   1      18.694  -1.176   6.227 -0.03 +0.00    +0.194 C 
DOCKED: ATOM      6  C   UNL d   1      18.674  -2.572   5.601 -0.09 +0.00    +0.194 C 
DOCKED: ENDROOT
DOCKED: BRANCH   1   7
DOCKED: ATOM      7  O   UNL d   1      19.260  -4.873   5.815 -0.12 -0.04    -0.278 OA
DOCKED: BRANCH   7   8
DOCKED: ATOM      8  P   UNL d   1      20.474  -5.901   5.669 -0.14 +0.14    +0.473 P 
DOCKED: ATOM      9  O   UNL d   1      21.595  -5.693   6.627 -0.09 -0.07    -0.228 OA
DOCKED: BRANCH   8  10
DOCKED: ATOM     10  O   UNL d   1      19.787  -7.334   5.808 -0.48 -0.13    -0.303 OA
DOCKED: ATOM     11  H   UNL d   1      19.247  -7.360   6.620 +0.07 +0.05    +0.222 HD
DOCKED: ENDBRANCH   8  10
DOCKED: BRANCH   8  12
DOCKED: ATOM     12  O   UNL d   1      20.862  -5.866   4.129 -0.11 -0.10    -0.303 OA
DOCKED: ATOM     13  H   UNL d   1      20.367  -5.184   3.622 +0.06 +0.04    +0.222 HD
DOCKED: ENDBRANCH   8  12
DOCKED: ENDBRANCH   7   8
DOCKED: ENDBRANCH   1   7
DOCKED: BRANCH   2  14
DOCKED: ATOM     14  O   UNL d   1      17.825  -4.110   7.999 -0.08 +0.02    -0.278 OA
DOCKED: BRANCH  14  15
DOCKED: ATOM     15  P   UNL d   1      17.659  -5.690   8.199 -0.07 -0.04    +0.473 P 
DOCKED: ATOM     16  O   UNL d   1      16.640  -6.137   9.200 -0.10 +0.04    -0.228 OA
DOCKED: BRANCH  15  17
DOCKED: ATOM     17  O   UNL d   1      17.364  -6.237   6.732 -0.10 +0.01    -0.303 OA
DOCKED: ATOM     18  H   UNL d   1      18.116  -6.061   6.133 +0.12 +0.04    +0.222 HD
DOCKED: ENDBRANCH  15  17
DOCKED: BRANCH  15  19
DOCKED: ATOM     19  O   UNL d   1      19.140  -6.216   8.445 -0.02 -0.02    -0.303 OA
DOCKED: ATOM     20  H   UNL d   1      19.691  -6.127   7.646 +0.05 +0.03    +0.222 HD
DOCKED: ENDBRANCH  15  19
DOCKED: ENDBRANCH  14  15
DOCKED: ENDBRANCH   2  14
DOCKED: BRANCH   6  21
DOCKED: ATOM     21  O   UNL d   1      19.246  -2.448   4.300 -0.06 -0.00    -0.278 OA
DOCKED: BRANCH  21  22
DOCKED: ATOM     22  P   UNL d   1      18.295  -2.355   3.023 -0.11 -0.03    +0.473 P 
DOCKED: ATOM     23  O   UNL d   1      18.350  -1.118   2.192 -0.06 +0.01    -0.228 OA
DOCKED: BRANCH  22  24
DOCKED: ATOM     24  O   UNL d   1      18.658  -3.696   2.248 -0.17 +0.03    -0.303 OA
DOCKED: ATOM     25  H   UNL d   1      17.817  -4.094   1.908 -0.21 -0.07    +0.222 HD
DOCKED: ENDBRANCH  22  24
DOCKED: BRANCH  22  26
DOCKED: ATOM     26  O   UNL d   1      16.866  -2.714   3.654 -0.16 +0.07    -0.303 OA
DOCKED: ATOM     27  H   UNL d   1      16.747  -2.214   4.487 +0.03 -0.04    +0.222 HD
DOCKED: ENDBRANCH  22  26
DOCKED: ENDBRANCH  21  22
DOCKED: ENDBRANCH   6  21
DOCKED: BRANCH   3  28
DOCKED: ATOM     28  O   UNL d   1      18.633  -2.310   9.774 -0.01 +0.00    -0.278 OA
DOCKED: BRANCH  28  29
DOCKED: ATOM     29  P   UNL d   1      17.047  -2.376   9.907 -0.06 -0.02    +0.473 P 
DOCKED: ATOM     30  O   UNL d   1      16.290  -2.154   8.649 -0.32 -0.01    -0.228 OA
DOCKED: BRANCH  29  31
DOCKED: ATOM     31  O   UNL d   1      16.885  -3.804  10.610 -0.06 +0.03    -0.303 OA
DOCKED: ATOM     32  H   UNL d   1      16.773  -4.488   9.910 +0.05 -0.03    +0.222 HD
DOCKED: ENDBRANCH  29  31
DOCKED: BRANCH  29  33
DOCKED: ATOM     33  O   UNL d   1      16.770  -1.362  11.102 -0.06 +0.01    -0.303 OA
DOCKED: ATOM     34  H   UNL d   1      16.726  -0.443  10.740 +0.02 +0.00    +0.222 HD
DOCKED: ENDBRANCH  29  33
DOCKED: ENDBRANCH  28  29
DOCKED: ENDBRANCH   3  28
DOCKED: BRANCH   5  35
DOCKED: ATOM     35  O   UNL d   1      17.610  -0.445   5.657 -0.05 -0.00    -0.278 OA
DOCKED: BRANCH  35  36
DOCKED: ATOM     36  P   UNL d   1      16.104  -0.820   6.025 -0.14 +0.01    +0.473 P 
DOCKED: ATOM     37  O   UNL d   1      15.529  -0.099   7.203 -0.65 -0.04    -0.228 OA
DOCKED: BRANCH  36  38
DOCKED: ATOM     38  O   UNL d   1      15.352  -0.535   4.651 -0.24 +0.01    -0.303 OA
DOCKED: ATOM     39  H   UNL d   1      15.929  -0.808   3.906 +0.09 -0.01    +0.222 HD
DOCKED: ENDBRANCH  36  38
DOCKED: BRANCH  36  40
DOCKED: ATOM     40  O   UNL d   1      16.160  -2.408   6.108 -0.26 +0.04    -0.303 OA
DOCKED: ATOM     41  H   UNL d   1      16.469  -2.716   6.989 +0.05 -0.02    +0.222 HD
DOCKED: ENDBRANCH  36  40
DOCKED: ENDBRANCH  35  36
DOCKED: ENDBRANCH   5  35
DOCKED: BRANCH   4  42
DOCKED: ATOM     42  O   UNL d   1      18.878   0.102   8.223 -0.01 -0.01    -0.278 OA
DOCKED: BRANCH  42  43
DOCKED: ATOM     43  P   UNL d   1      17.784   1.231   8.497 +0.00 +0.02    +0.473 P 
DOCKED: ATOM     44  O   UNL d   1      16.593   0.850   9.306 -0.08 -0.01    -0.228 OA
DOCKED: BRANCH  43  45
DOCKED: ATOM     45  O   UNL d   1      18.648   2.410   9.125 +0.00 -0.01    -0.303 OA
DOCKED: ATOM     46  H   UNL d   1      18.096   3.009   9.666 +0.01 +0.01    +0.222 HD
DOCKED: ENDBRANCH  43  45
DOCKED: BRANCH  43  47
DOCKED: ATOM     47  O   UNL d   1      17.471   1.800   7.032 -0.01 -0.01    -0.303 OA
DOCKED: ATOM     48  H   UNL d   1      16.718   1.306   6.647 +0.04 +0.01    +0.222 HD
DOCKED: ENDBRANCH  43  47
DOCKED: ENDBRANCH  42  43
DOCKED: ENDBRANCH   4  42
DOCKED: TORSDOF 24
DOCKED: TER
DOCKED: ENDMDL
________________________________________________________________________________


	BEGINNING GENETIC ALGORITHM DOCKING 45 of 100
Run: 45 Seed: 1508207425 796836592 [ Run 45 of 100 GA/GALS ]
Beginning LAMARCKIAN GENETIC ALGORITHM (LGA), with a maximum of 25000000 energy evaluations.

Final-Value: -17.789


	FINAL GENETIC ALGORITHM DOCKED STATE
	_______________________________________________


Detailed state:  trans -12.868 1.195 8.943 quatxyzw 0.760212 -0.020340 -0.615249 -0.207684 center 0.035 0.082 -0.065 ntor 24 -179.7811 -24.7827 9.4269 86.9824 42.7019 -116.2780 128.3936 10.7365 -73.6517 48.7142 1.7387 163.7158 94.5521 176.3605 131.6397 170.1628 2.8362 -166.2123 -29.3720 -44.1772 139.6607 32.8054 123.5457 -27.7934
State:	-12.868   1.195   8.943   0.777 -0.021 -0.629 -156.027   -179.78  -24.78    9.43   86.98   42.70 -116.28  128.39   10.74  -73.65   48.71    1.74  163.72   94.55  176.36  131.64  170.16    2.84 -166.21  -29.37  -44.18  139.66   32.81  123.55  -27.79

DOCKED: MODEL       45
DOCKED: USER    Run = 45
DOCKED: USER    DPF = D:/Protein_go_brrr/autodock/final/mut_D99N/IHP/dock.dpf
DOCKED: USER  
DOCKED: USER    Estimated Free Energy of Binding    =   +0.20 kcal/mol  [=(1)+(2)+(3)-(4)]
DOCKED: USER    
DOCKED: USER    (1) Final Intermolecular Energy     =   -6.96 kcal/mol
DOCKED: USER        vdW + Hbond + desolv Energy     =   -6.61 kcal/mol
DOCKED: USER        Electrostatic Energy            =   -0.35 kcal/mol
DOCKED: USER    (2) Final Total Internal Energy     =  -10.83 kcal/mol
DOCKED: USER    (3) Torsional Free Energy           =   +7.16 kcal/mol
DOCKED: USER    (4) Unbound System's Energy  [=(2)] =  -10.83 kcal/mol
DOCKED: USER    
DOCKED: USER    
DOCKED: USER    NEWDPF move IHP_ideal_opt.pdbqt
DOCKED: USER    NEWDPF about 0.035000 0.082000 -0.065000
DOCKED: USER    NEWDPF tran0 -12.867850 1.194776 8.942712
DOCKED: USER    NEWDPF quaternion0 0.760212 -0.020340 -0.615249 -0.207684
DOCKED: USER    NEWDPF axisangle0 0.777157 -0.020793 -0.628963 -156.026730
DOCKED: USER    NEWDPF quat0 0.777157 -0.020793 -0.628963 -156.026730
DOCKED: USER    NEWDPF dihe0 -179.78 -24.78 9.43 86.98 42.70 -116.28 128.39 10.74 -73.65 48.71 1.74 163.72 94.55 176.36 131.64 170.16 2.84 -166.21 -29.37 -44.18 139.66 32.81 123.55 -27.79 
DOCKED: USER  keepresnum = 1 
DOCKED: USER  
DOCKED: REMARK  24 active torsions:
DOCKED: REMARK  status: ('A' for Active; 'I' for Inactive)
DOCKED: REMARK    1  A    between atoms: C_1  and  O_7 
DOCKED: REMARK    2  A    between atoms: C_2  and  O_12 
DOCKED: REMARK    3  A    between atoms: C_3  and  O_17 
DOCKED: REMARK    4  A    between atoms: C_4  and  O_22 
DOCKED: REMARK    5  A    between atoms: C_5  and  O_27 
DOCKED: REMARK    6  A    between atoms: C_6  and  O_32 
DOCKED: REMARK    7  A    between atoms: O_7  and  P_8 
DOCKED: REMARK    8  A    between atoms: P_8  and  O_10 
DOCKED: REMARK    9  A    between atoms: P_8  and  O_11 
DOCKED: REMARK   10  A    between atoms: O_12  and  P_13 
DOCKED: REMARK   11  A    between atoms: P_13  and  O_15 
DOCKED: REMARK   12  A    between atoms: P_13  and  O_16 
DOCKED: REMARK   13  A    between atoms: O_17  and  P_18 
DOCKED: REMARK   14  A    between atoms: P_18  and  O_20 
DOCKED: REMARK   15  A    between atoms: P_18  and  O_21 
DOCKED: REMARK   16  A    between atoms: O_22  and  P_23 
DOCKED: REMARK   17  A    between atoms: P_23  and  O_25 
DOCKED: REMARK   18  A    between atoms: P_23  and  O_26 
DOCKED: REMARK   19  A    between atoms: O_27  and  P_28 
DOCKED: REMARK   20  A    between atoms: P_28  and  O_30 
DOCKED: REMARK   21  A    between atoms: P_28  and  O_31 
DOCKED: REMARK   22  A    between atoms: O_32  and  P_33 
DOCKED: REMARK   23  A    between atoms: P_33  and  O_35 
DOCKED: REMARK   24  A    between atoms: P_33  and  O_36 
DOCKED: USER                              x       y       z     vdW  Elec       q    Type
DOCKED: USER                           _______ _______ _______ _____ _____    ______ ____
DOCKED: ROOT
DOCKED: ATOM      1  C   UNL d   1     -13.511   1.417   7.355 -0.07 +0.07    +0.194 C 
DOCKED: ATOM      2  C   UNL d   1     -13.645   2.615   8.295 -0.10 +0.05    +0.194 C 
DOCKED: ATOM      3  C   UNL d   1     -14.081   2.188   9.698 -0.10 +0.06    +0.194 C 
DOCKED: ATOM      4  C   UNL d   1     -13.207   1.085  10.290 -0.11 +0.06    +0.194 C 
DOCKED: ATOM      5  C   UNL d   1     -12.952  -0.080   9.343 -0.08 +0.06    +0.194 C 
DOCKED: ATOM      6  C   UNL d   1     -12.575   0.348   7.923 -0.14 +0.09    +0.194 C 
DOCKED: ENDROOT
DOCKED: BRANCH   1   7
DOCKED: ATOM      7  O   UNL d   1     -12.938   1.875   6.127 -0.09 -0.10    -0.278 OA
DOCKED: BRANCH   7   8
DOCKED: ATOM      8  P   UNL d   1     -13.289   1.083   4.784 -0.09 +0.32    +0.473 P 
DOCKED: ATOM      9  O   UNL d   1     -13.377   1.926   3.561 -0.13 -0.10    -0.228 OA
DOCKED: BRANCH   8  10
DOCKED: ATOM     10  O   UNL d   1     -12.161  -0.041   4.693 -0.73 -0.44    -0.303 OA
DOCKED: ATOM     11  H   UNL d   1     -11.791  -0.206   5.580 +0.06 +0.25    +0.222 HD
DOCKED: ENDBRANCH   8  10
DOCKED: BRANCH   8  12
DOCKED: ATOM     12  O   UNL d   1     -14.582   0.229   5.134 -0.06 -0.24    -0.303 OA
DOCKED: ATOM     13  H   UNL d   1     -14.400  -0.509   5.758 +0.03 +0.22    +0.222 HD
DOCKED: ENDBRANCH   8  12
DOCKED: ENDBRANCH   7   8
DOCKED: ENDBRANCH   1   7
DOCKED: BRANCH   2  14
DOCKED: ATOM     14  O   UNL d   1     -12.378   3.277   8.393 -0.14 -0.06    -0.278 OA
DOCKED: BRANCH  14  15
DOCKED: ATOM     15  P   UNL d   1     -12.068   4.396   7.290 -0.17 +0.05    +0.473 P 
DOCKED: ATOM     16  O   UNL d   1     -10.771   4.272   6.553 -0.36 -0.01    -0.228 OA
DOCKED: BRANCH  15  17
DOCKED: ATOM     17  O   UNL d   1     -13.334   4.350   6.325 -0.06 -0.04    -0.303 OA
DOCKED: ATOM     18  H   UNL d   1     -13.221   3.675   5.629 +0.08 +0.04    +0.222 HD
DOCKED: ENDBRANCH  15  17
DOCKED: BRANCH  15  19
DOCKED: ATOM     19  O   UNL d   1     -12.295   5.775   8.050 -0.28 -0.01    -0.303 OA
DOCKED: ATOM     20  H   UNL d   1     -12.139   5.689   9.008 -0.23 -0.02    +0.222 HD
DOCKED: ENDBRANCH  15  19
DOCKED: ENDBRANCH  14  15
DOCKED: ENDBRANCH   2  14
DOCKED: BRANCH   6  21
DOCKED: ATOM     21  O   UNL d   1     -12.708  -0.806   7.096 -0.17 -0.21    -0.278 OA
DOCKED: BRANCH  21  22
DOCKED: ATOM     22  P   UNL d   1     -13.896  -1.837   7.360 -0.05 +0.35    +0.473 P 
DOCKED: ATOM     23  O   UNL d   1     -14.263  -2.784   6.268 -0.56 -0.33    -0.228 OA
DOCKED: BRANCH  22  24
DOCKED: ATOM     24  O   UNL d   1     -13.430  -2.530   8.715 -0.02 -0.13    -0.303 OA
DOCKED: ATOM     25  H   UNL d   1     -12.447  -2.433   8.789 +0.07 +0.09    +0.222 HD
DOCKED: ENDBRANCH  22  24
DOCKED: BRANCH  22  26
DOCKED: ATOM     26  O   UNL d   1     -15.064  -0.865   7.870 -0.00 -0.13    -0.303 OA
DOCKED: ATOM     27  H   UNL d   1     -15.373  -0.314   7.122 +0.02 +0.10    +0.222 HD
DOCKED: ENDBRANCH  22  26
DOCKED: ENDBRANCH  21  22
DOCKED: ENDBRANCH   6  21
DOCKED: BRANCH   3  28
DOCKED: ATOM     28  O   UNL d   1     -13.911   3.307  10.559 -0.19 -0.12    -0.278 OA
DOCKED: BRANCH  28  29
DOCKED: ATOM     29  P   UNL d   1     -14.951   3.585  11.733 -0.09 +0.24    +0.473 P 
DOCKED: ATOM     30  O   UNL d   1     -14.372   4.138  12.984 -0.64 -0.22    -0.228 OA
DOCKED: BRANCH  29  31
DOCKED: ATOM     31  O   UNL d   1     -16.010   4.500  10.956 -0.10 -0.11    -0.303 OA
DOCKED: ATOM     32  H   UNL d   1     -16.727   4.751  11.583 +0.03 +0.07    +0.222 HD
DOCKED: ENDBRANCH  29  31
DOCKED: BRANCH  29  33
DOCKED: ATOM     33  O   UNL d   1     -15.708   2.189  11.845 -0.03 -0.11    -0.303 OA
DOCKED: ATOM     34  H   UNL d   1     -15.088   1.516  12.219 +0.04 +0.09    +0.222 HD
DOCKED: ENDBRANCH  29  33
DOCKED: ENDBRANCH  28  29
DOCKED: ENDBRANCH   3  28
DOCKED: BRANCH   5  35
DOCKED: ATOM     35  O   UNL d   1     -11.831  -0.778   9.881 -0.10 -0.09    -0.278 OA
DOCKED: BRANCH  35  36
DOCKED: ATOM     36  P   UNL d   1     -10.400  -0.659   9.188 -0.25 +0.16    +0.473 P 
DOCKED: ATOM     37  O   UNL d   1      -9.962   0.729   8.845 -0.29 -0.07    -0.228 OA
DOCKED: BRANCH  36  38
DOCKED: ATOM     38  O   UNL d   1      -9.464  -1.398  10.243 -0.34 -0.07    -0.303 OA
DOCKED: ATOM     39  H   UNL d   1      -8.596  -0.941  10.278 -0.44 +0.01    +0.222 HD
DOCKED: ENDBRANCH  36  38
DOCKED: BRANCH  36  40
DOCKED: ATOM     40  O   UNL d   1     -10.516  -1.697   7.988 -0.56 -0.16    -0.303 OA
DOCKED: ATOM     41  H   UNL d   1     -11.429  -2.051   7.900 +0.09 +0.13    +0.222 HD
DOCKED: ENDBRANCH  36  40
DOCKED: ENDBRANCH  35  36
DOCKED: ENDBRANCH   5  35
DOCKED: BRANCH   4  42
DOCKED: ATOM     42  O   UNL d   1     -13.911   0.561  11.422 -0.05 -0.10    -0.278 OA
DOCKED: BRANCH  42  43
DOCKED: ATOM     43  P   UNL d   1     -13.092   0.218  12.747 -0.08 +0.22    +0.473 P 
DOCKED: ATOM     44  O   UNL d   1     -13.132  -1.190  13.233 -0.07 -0.08    -0.228 OA
DOCKED: BRANCH  43  45
DOCKED: ATOM     45  O   UNL d   1     -11.631   0.746  12.402 -0.15 -0.16    -0.303 OA
DOCKED: ATOM     46  H   UNL d   1     -11.193   0.179  11.737 +0.11 +0.09    +0.222 HD
DOCKED: ENDBRANCH  43  45
DOCKED: BRANCH  43  47
DOCKED: ATOM     47  O   UNL d   1     -13.602   1.324  13.789 -0.05 -0.28    -0.303 OA
DOCKED: ATOM     48  H   UNL d   1     -14.034   2.054  13.299 +0.05 +0.20    +0.222 HD
DOCKED: ENDBRANCH  43  47
DOCKED: ENDBRANCH  42  43
DOCKED: ENDBRANCH   4  42
DOCKED: TORSDOF 24
DOCKED: TER
DOCKED: ENDMDL
________________________________________________________________________________


	BEGINNING GENETIC ALGORITHM DOCKING 46 of 100
Run: 46 Seed: 512989644 402849796 [ Run 46 of 100 GA/GALS ]
Beginning LAMARCKIAN GENETIC ALGORITHM (LGA), with a maximum of 25000000 energy evaluations.

Final-Value: -18.552


	FINAL GENETIC ALGORITHM DOCKED STATE
	_______________________________________________


Detailed state:  trans 16.778 -10.512 8.246 quatxyzw 0.073502 -0.353834 0.900366 0.242365 center 0.035 0.082 -0.065 ntor 24 -143.6462 -36.8436 139.8854 103.1687 125.0432 73.9150 -30.0857 -178.2795 16.6107 81.1899 106.7286 -109.5116 79.1530 -145.5580 180.0000 148.8088 -60.2180 87.9266 -32.7001 -35.6014 9.1706 -42.9805 172.3914 5.3871
State:	 16.778 -10.512   8.246   0.076 -0.365  0.928 151.948   -143.65  -36.84  139.89  103.17  125.04   73.91  -30.09 -178.28   16.61   81.19  106.73 -109.51   79.15 -145.56  180.00  148.81  -60.22   87.93  -32.70  -35.60    9.17  -42.98  172.39    5.39

DOCKED: MODEL       46
DOCKED: USER    Run = 46
DOCKED: USER    DPF = D:/Protein_go_brrr/autodock/final/mut_D99N/IHP/dock.dpf
DOCKED: USER  
DOCKED: USER    Estimated Free Energy of Binding    =   +2.88 kcal/mol  [=(1)+(2)+(3)-(4)]
DOCKED: USER    
DOCKED: USER    (1) Final Intermolecular Energy     =   -4.28 kcal/mol
DOCKED: USER        vdW + Hbond + desolv Energy     =   -3.85 kcal/mol
DOCKED: USER        Electrostatic Energy            =   -0.42 kcal/mol
DOCKED: USER    (2) Final Total Internal Energy     =  -14.28 kcal/mol
DOCKED: USER    (3) Torsional Free Energy           =   +7.16 kcal/mol
DOCKED: USER    (4) Unbound System's Energy  [=(2)] =  -14.28 kcal/mol
DOCKED: USER    
DOCKED: USER    
DOCKED: USER    NEWDPF move IHP_ideal_opt.pdbqt
DOCKED: USER    NEWDPF about 0.035000 0.082000 -0.065000
DOCKED: USER    NEWDPF tran0 16.777677 -10.512176 8.246054
DOCKED: USER    NEWDPF quaternion0 0.073502 -0.353834 0.900366 0.242365
DOCKED: USER    NEWDPF axisangle0 0.075761 -0.364708 0.928035 151.947658
DOCKED: USER    NEWDPF quat0 0.075761 -0.364708 0.928035 151.947658
DOCKED: USER    NEWDPF dihe0 -143.65 -36.84 139.89 103.17 125.04 73.91 -30.09 -178.28 16.61 81.19 106.73 -109.51 79.15 -145.56 180.00 148.81 -60.22 87.93 -32.70 -35.60 9.17 -42.98 172.39 5.39 
DOCKED: USER  keepresnum = 1 
DOCKED: USER  
DOCKED: REMARK  24 active torsions:
DOCKED: REMARK  status: ('A' for Active; 'I' for Inactive)
DOCKED: REMARK    1  A    between atoms: C_1  and  O_7 
DOCKED: REMARK    2  A    between atoms: C_2  and  O_12 
DOCKED: REMARK    3  A    between atoms: C_3  and  O_17 
DOCKED: REMARK    4  A    between atoms: C_4  and  O_22 
DOCKED: REMARK    5  A    between atoms: C_5  and  O_27 
DOCKED: REMARK    6  A    between atoms: C_6  and  O_32 
DOCKED: REMARK    7  A    between atoms: O_7  and  P_8 
DOCKED: REMARK    8  A    between atoms: P_8  and  O_10 
DOCKED: REMARK    9  A    between atoms: P_8  and  O_11 
DOCKED: REMARK   10  A    between atoms: O_12  and  P_13 
DOCKED: REMARK   11  A    between atoms: P_13  and  O_15 
DOCKED: REMARK   12  A    between atoms: P_13  and  O_16 
DOCKED: REMARK   13  A    between atoms: O_17  and  P_18 
DOCKED: REMARK   14  A    between atoms: P_18  and  O_20 
DOCKED: REMARK   15  A    between atoms: P_18  and  O_21 
DOCKED: REMARK   16  A    between atoms: O_22  and  P_23 
DOCKED: REMARK   17  A    between atoms: P_23  and  O_25 
DOCKED: REMARK   18  A    between atoms: P_23  and  O_26 
DOCKED: REMARK   19  A    between atoms: O_27  and  P_28 
DOCKED: REMARK   20  A    between atoms: P_28  and  O_30 
DOCKED: REMARK   21  A    between atoms: P_28  and  O_31 
DOCKED: REMARK   22  A    between atoms: O_32  and  P_33 
DOCKED: REMARK   23  A    between atoms: P_33  and  O_35 
DOCKED: REMARK   24  A    between atoms: P_33  and  O_36 
DOCKED: USER                              x       y       z     vdW  Elec       q    Type
DOCKED: USER                           _______ _______ _______ _____ _____    ______ ____
DOCKED: ROOT
DOCKED: ATOM      1  C   UNL d   1      15.584 -11.039   9.379 -0.02 -0.03    +0.194 C 
DOCKED: ATOM      2  C   UNL d   1      16.251  -9.699   9.696 -0.02 -0.03    +0.194 C 
DOCKED: ATOM      3  C   UNL d   1      17.762  -9.749   9.462 -0.01 -0.01    +0.194 C 
DOCKED: ATOM      4  C   UNL d   1      18.139 -10.267   8.076 -0.04 -0.00    +0.194 C 
DOCKED: ATOM      5  C   UNL d   1      17.410 -11.542   7.671 -0.03 -0.02    +0.194 C 
DOCKED: ATOM      6  C   UNL d   1      15.908 -11.516   7.962 -0.05 -0.04    +0.194 C 
DOCKED: ENDROOT
DOCKED: BRANCH   1   7
DOCKED: ATOM      7  O   UNL d   1      14.168 -10.861   9.455 -0.03 +0.07    -0.278 OA
DOCKED: BRANCH   7   8
DOCKED: ATOM      8  P   UNL d   1      13.259 -12.137   9.766 +0.00 -0.09    +0.473 P 
DOCKED: ATOM      9  O   UNL d   1      12.256 -11.949  10.849 -0.01 +0.05    -0.228 OA
DOCKED: BRANCH   8  10
DOCKED: ATOM     10  O   UNL d   1      12.601 -12.496   8.357 -0.03 +0.08    -0.303 OA
DOCKED: ATOM     11  H   UNL d   1      13.304 -12.671   7.704 +0.06 -0.06    +0.222 HD
DOCKED: ENDBRANCH   8  10
DOCKED: BRANCH   8  12
DOCKED: ATOM     12  O   UNL d   1      14.283 -13.335   9.969 -0.00 +0.04    -0.303 OA
DOCKED: ATOM     13  H   UNL d   1      14.586 -13.731   9.121 +0.01 -0.03    +0.222 HD
DOCKED: ENDBRANCH   8  12
DOCKED: ENDBRANCH   7   8
DOCKED: ENDBRANCH   1   7
DOCKED: BRANCH   2  14
DOCKED: ATOM     14  O   UNL d   1      15.691  -8.687   8.850 -0.09 +0.07    -0.278 OA
DOCKED: BRANCH  14  15
DOCKED: ATOM     15  P   UNL d   1      14.500  -7.814   9.470 -0.10 -0.16    +0.473 P 
DOCKED: ATOM     16  O   UNL d   1      13.111  -8.329   9.263 -0.17 +0.10    -0.228 OA
DOCKED: BRANCH  15  17
DOCKED: ATOM     17  O   UNL d   1      14.884  -7.674  11.010 -0.02 +0.06    -0.303 OA
DOCKED: ATOM     18  H   UNL d   1      15.831  -7.466  11.119 +0.04 -0.03    +0.222 HD
DOCKED: ENDBRANCH  15  17
DOCKED: BRANCH  15  19
DOCKED: ATOM     19  O   UNL d   1      14.771  -6.339   8.939 -0.17 +0.15    -0.303 OA
DOCKED: ATOM     20  H   UNL d   1      15.018  -6.335   7.996 -0.49 -0.15    +0.222 HD
DOCKED: ENDBRANCH  15  19
DOCKED: ENDBRANCH  14  15
DOCKED: ENDBRANCH   2  14
DOCKED: BRANCH   6  21
DOCKED: ATOM     21  O   UNL d   1      15.445 -12.860   7.857 -0.02 +0.07    -0.278 OA
DOCKED: BRANCH  21  22
DOCKED: ATOM     22  P   UNL d   1      14.858 -13.389   6.471 -0.03 -0.26    +0.473 P 
DOCKED: ATOM     23  O   UNL d   1      13.807 -14.447   6.509 -0.07 +0.08    -0.228 OA
DOCKED: BRANCH  22  24
DOCKED: ATOM     24  O   UNL d   1      14.415 -12.033   5.766 -0.19 +0.23    -0.303 OA
DOCKED: ATOM     25  H   UNL d   1      15.215 -11.454   5.682 +0.06 -0.15    +0.222 HD
DOCKED: ENDBRANCH  22  24
DOCKED: BRANCH  22  26
DOCKED: ATOM     26  O   UNL d   1      16.197 -13.756   5.670 -0.04 +0.24    -0.303 OA
DOCKED: ATOM     27  H   UNL d   1      16.408 -13.032   5.046 -0.41 -0.28    +0.222 HD
DOCKED: ENDBRANCH  22  26
DOCKED: ENDBRANCH  21  22
DOCKED: ENDBRANCH   6  21
DOCKED: BRANCH   3  28
DOCKED: ATOM     28  O   UNL d   1      18.247  -8.413   9.509 -0.01 +0.00    -0.278 OA
DOCKED: BRANCH  28  29
DOCKED: ATOM     29  P   UNL d   1      18.227  -7.598  10.878 +0.01 -0.01    +0.473 P 
DOCKED: ATOM     30  O   UNL d   1      19.542  -7.079  11.334 -0.00 -0.00    -0.228 OA
DOCKED: BRANCH  29  31
DOCKED: ATOM     31  O   UNL d   1      17.096  -6.516  10.541 -0.01 +0.03    -0.303 OA
DOCKED: ATOM     32  H   UNL d   1      16.538  -6.863   9.808 +0.05 -0.03    +0.222 HD
DOCKED: ENDBRANCH  29  31
DOCKED: BRANCH  29  33
DOCKED: ATOM     33  O   UNL d   1      17.472  -8.604  11.854 -0.00 +0.02    -0.303 OA
DOCKED: ATOM     34  H   UNL d   1      16.645  -8.173  12.182 +0.01 -0.02    +0.222 HD
DOCKED: ENDBRANCH  29  33
DOCKED: ENDBRANCH  28  29
DOCKED: ENDBRANCH   3  28
DOCKED: BRANCH   5  35
DOCKED: ATOM     35  O   UNL d   1      17.562 -11.642   6.257 -0.08 +0.06    -0.278 OA
DOCKED: BRANCH  35  36
DOCKED: ATOM     36  P   UNL d   1      17.069 -10.457   5.309 -0.14 -0.14    +0.473 P 
DOCKED: ATOM     37  O   UNL d   1      16.143  -9.468   5.942 -0.28 +0.07    -0.228 OA
DOCKED: BRANCH  36  38
DOCKED: ATOM     38  O   UNL d   1      18.450  -9.838   4.815 -0.61 -0.05    -0.303 OA
DOCKED: ATOM     39  H   UNL d   1      19.003  -9.622   5.597 +0.07 +0.06    +0.222 HD
DOCKED: ENDBRANCH  36  38
DOCKED: BRANCH  36  40
DOCKED: ATOM     40  O   UNL d   1      16.525 -11.243   4.037 -0.19 +0.26    -0.303 OA
DOCKED: ATOM     41  H   UNL d   1      16.043 -12.060   4.293 -0.47 -0.41    +0.222 HD
DOCKED: ENDBRANCH  36  40
DOCKED: ENDBRANCH  35  36
DOCKED: ENDBRANCH   5  35
DOCKED: BRANCH   4  42
DOCKED: ATOM     42  O   UNL d   1      19.537 -10.576   8.115 -0.02 -0.03    -0.278 OA
DOCKED: BRANCH  42  43
DOCKED: ATOM     43  P   UNL d   1      20.563  -9.598   7.383 -0.07 +0.16    +0.473 P 
DOCKED: ATOM     44  O   UNL d   1      21.788  -9.203   8.133 -0.07 -0.11    -0.228 OA
DOCKED: BRANCH  43  45
DOCKED: ATOM     45  O   UNL d   1      20.854 -10.358   6.016 -0.13 -0.17    -0.303 OA
DOCKED: ATOM     46  H   UNL d   1      20.065 -10.843   5.701 +0.06 +0.07    +0.222 HD
DOCKED: ENDBRANCH  43  45
DOCKED: BRANCH  43  47
DOCKED: ATOM     47  O   UNL d   1      19.632  -8.390   6.893 -0.15 -0.08    -0.303 OA
DOCKED: ATOM     48  H   UNL d   1      19.326  -7.881   7.672 +0.05 +0.03    +0.222 HD
DOCKED: ENDBRANCH  43  47
DOCKED: ENDBRANCH  42  43
DOCKED: ENDBRANCH   4  42
DOCKED: TORSDOF 24
DOCKED: TER
DOCKED: ENDMDL
________________________________________________________________________________


	BEGINNING GENETIC ALGORITHM DOCKING 47 of 100
Run: 47 Seed: 1369061500 2095651987 [ Run 47 of 100 GA/GALS ]
Beginning LAMARCKIAN GENETIC ALGORITHM (LGA), with a maximum of 25000000 energy evaluations.

Final-Value: -17.207


	FINAL GENETIC ALGORITHM DOCKED STATE
	_______________________________________________


Detailed state:  trans -16.845 11.006 5.830 quatxyzw -0.418204 0.784327 -0.270687 0.369681 center 0.035 0.082 -0.065 ntor 24 -179.4309 -64.1121 18.9892 27.2400 33.7236 -133.2093 -111.6045 116.3087 166.9379 -28.0732 -3.0599 -83.5647 81.7558 -80.9093 -55.9032 -35.1451 160.7572 -72.6947 17.0872 12.9610 160.1625 2.7058 19.3007 168.9634
State:	-16.845  11.006   5.830  -0.450  0.844 -0.291 136.608   -179.43  -64.11   18.99   27.24   33.72 -133.21 -111.60  116.31  166.94  -28.07   -3.06  -83.56   81.76  -80.91  -55.90  -35.15  160.76  -72.69   17.09   12.96  160.16    2.71   19.30  168.96

DOCKED: MODEL       47
DOCKED: USER    Run = 47
DOCKED: USER    DPF = D:/Protein_go_brrr/autodock/final/mut_D99N/IHP/dock.dpf
DOCKED: USER  
DOCKED: USER    Estimated Free Energy of Binding    =   +2.90 kcal/mol  [=(1)+(2)+(3)-(4)]
DOCKED: USER    
DOCKED: USER    (1) Final Intermolecular Energy     =   -4.26 kcal/mol
DOCKED: USER        vdW + Hbond + desolv Energy     =   -4.01 kcal/mol
DOCKED: USER        Electrostatic Energy            =   -0.25 kcal/mol
DOCKED: USER    (2) Final Total Internal Energy     =  -12.95 kcal/mol
DOCKED: USER    (3) Torsional Free Energy           =   +7.16 kcal/mol
DOCKED: USER    (4) Unbound System's Energy  [=(2)] =  -12.95 kcal/mol
DOCKED: USER    
DOCKED: USER    
DOCKED: USER    NEWDPF move IHP_ideal_opt.pdbqt
DOCKED: USER    NEWDPF about 0.035000 0.082000 -0.065000
DOCKED: USER    NEWDPF tran0 -16.845402 11.006343 5.830218
DOCKED: USER    NEWDPF quaternion0 -0.418204 0.784327 -0.270687 0.369681
DOCKED: USER    NEWDPF axisangle0 -0.450089 0.844126 -0.291325 136.608081
DOCKED: USER    NEWDPF quat0 -0.450089 0.844126 -0.291325 136.608081
DOCKED: USER    NEWDPF dihe0 -179.43 -64.11 18.99 27.24 33.72 -133.21 -111.60 116.31 166.94 -28.07 -3.06 -83.56 81.76 -80.91 -55.90 -35.15 160.76 -72.69 17.09 12.96 160.16 2.71 19.30 168.96 
DOCKED: USER  keepresnum = 1 
DOCKED: USER  
DOCKED: REMARK  24 active torsions:
DOCKED: REMARK  status: ('A' for Active; 'I' for Inactive)
DOCKED: REMARK    1  A    between atoms: C_1  and  O_7 
DOCKED: REMARK    2  A    between atoms: C_2  and  O_12 
DOCKED: REMARK    3  A    between atoms: C_3  and  O_17 
DOCKED: REMARK    4  A    between atoms: C_4  and  O_22 
DOCKED: REMARK    5  A    between atoms: C_5  and  O_27 
DOCKED: REMARK    6  A    between atoms: C_6  and  O_32 
DOCKED: REMARK    7  A    between atoms: O_7  and  P_8 
DOCKED: REMARK    8  A    between atoms: P_8  and  O_10 
DOCKED: REMARK    9  A    between atoms: P_8  and  O_11 
DOCKED: REMARK   10  A    between atoms: O_12  and  P_13 
DOCKED: REMARK   11  A    between atoms: P_13  and  O_15 
DOCKED: REMARK   12  A    between atoms: P_13  and  O_16 
DOCKED: REMARK   13  A    between atoms: O_17  and  P_18 
DOCKED: REMARK   14  A    between atoms: P_18  and  O_20 
DOCKED: REMARK   15  A    between atoms: P_18  and  O_21 
DOCKED: REMARK   16  A    between atoms: O_22  and  P_23 
DOCKED: REMARK   17  A    between atoms: P_23  and  O_25 
DOCKED: REMARK   18  A    between atoms: P_23  and  O_26 
DOCKED: REMARK   19  A    between atoms: O_27  and  P_28 
DOCKED: REMARK   20  A    between atoms: P_28  and  O_30 
DOCKED: REMARK   21  A    between atoms: P_28  and  O_31 
DOCKED: REMARK   22  A    between atoms: O_32  and  P_33 
DOCKED: REMARK   23  A    between atoms: P_33  and  O_35 
DOCKED: REMARK   24  A    between atoms: P_33  and  O_36 
DOCKED: USER                              x       y       z     vdW  Elec       q    Type
DOCKED: USER                           _______ _______ _______ _____ _____    ______ ____
DOCKED: ROOT
DOCKED: ATOM      1  C   UNL d   1     -16.837   9.407   6.484 -0.01 -0.01    +0.194 C 
DOCKED: ATOM      2  C   UNL d   1     -15.548   9.842   5.785 -0.05 -0.03    +0.194 C 
DOCKED: ATOM      3  C   UNL d   1     -15.835  10.583   4.477 -0.07 -0.03    +0.194 C 
DOCKED: ATOM      4  C   UNL d   1     -16.819  11.739   4.644 -0.02 -0.03    +0.194 C 
DOCKED: ATOM      5  C   UNL d   1     -18.069  11.379   5.437 -0.00 -0.02    +0.194 C 
DOCKED: ATOM      6  C   UNL d   1     -17.786  10.584   6.713 -0.00 -0.02    +0.194 C 
DOCKED: ENDROOT
DOCKED: BRANCH   1   7
DOCKED: ATOM      7  O   UNL d   1     -16.492   8.882   7.768 -0.02 +0.01    -0.278 OA
DOCKED: BRANCH   7   8
DOCKED: ATOM      8  P   UNL d   1     -16.547   7.299   7.980 -0.01 +0.03    +0.473 P 
DOCKED: ATOM      9  O   UNL d   1     -15.362   6.713   8.663 -0.11 -0.04    -0.228 OA
DOCKED: BRANCH   8  10
DOCKED: ATOM     10  O   UNL d   1     -17.910   7.062   8.774 -0.01 -0.02    -0.303 OA
DOCKED: ATOM     11  H   UNL d   1     -18.514   7.813   8.619 +0.01 +0.01    +0.222 HD
DOCKED: ENDBRANCH   8  10
DOCKED: BRANCH   8  12
DOCKED: ATOM     12  O   UNL d   1     -16.888   6.702   6.548 -0.01 -0.02    -0.303 OA
DOCKED: ATOM     13  H   UNL d   1     -17.799   6.333   6.491 +0.01 +0.01    +0.222 HD
DOCKED: ENDBRANCH   8  12
DOCKED: ENDBRANCH   7   8
DOCKED: ENDBRANCH   1   7
DOCKED: BRANCH   2  14
DOCKED: ATOM     14  O   UNL d   1     -14.817  10.716   6.654 -0.06 +0.08    -0.278 OA
DOCKED: BRANCH  14  15
DOCKED: ATOM     15  P   UNL d   1     -13.220  10.604   6.604 -0.24 -0.17    +0.473 P 
DOCKED: ATOM     16  O   UNL d   1     -12.652   9.293   6.159 -0.24 +0.06    -0.228 OA
DOCKED: BRANCH  15  17
DOCKED: ATOM     17  O   UNL d   1     -12.775  11.818   5.673 -0.23 +0.15    -0.303 OA
DOCKED: ATOM     18  H   UNL d   1     -12.936  11.616   4.732 +0.11 -0.07    +0.222 HD
DOCKED: ENDBRANCH  15  17
DOCKED: BRANCH  15  19
DOCKED: ATOM     19  O   UNL d   1     -12.742  11.107   8.036 -0.49 +0.17    -0.303 OA
DOCKED: ATOM     20  H   UNL d   1     -13.335  11.794   8.393 -0.04 -0.27    +0.222 HD
DOCKED: ENDBRANCH  15  19
DOCKED: ENDBRANCH  14  15
DOCKED: ENDBRANCH   2  14
DOCKED: BRANCH   6  21
DOCKED: ATOM     21  O   UNL d   1     -19.031  10.040   7.144 +0.00 +0.01    -0.278 OA
DOCKED: BRANCH  21  22
DOCKED: ATOM     22  P   UNL d   1     -19.862   9.092   6.166 -0.00 +0.01    +0.473 P 
DOCKED: ATOM     23  O   UNL d   1     -19.663   9.248   4.696 -0.01 -0.00    -0.228 OA
DOCKED: BRANCH  22  24
DOCKED: ATOM     24  O   UNL d   1     -19.513   7.648   6.737 -0.00 -0.01    -0.303 OA
DOCKED: ATOM     25  H   UNL d   1     -18.589   7.673   7.095 +0.01 +0.01    +0.222 HD
DOCKED: ENDBRANCH  22  24
DOCKED: BRANCH  22  26
DOCKED: ATOM     26  O   UNL d   1     -21.359   9.306   6.698 -0.00 -0.01    -0.303 OA
DOCKED: ATOM     27  H   UNL d   1     -21.557  10.264   6.726 +0.00 +0.00    +0.222 HD
DOCKED: ENDBRANCH  22  26
DOCKED: ENDBRANCH  21  22
DOCKED: ENDBRANCH   6  21
DOCKED: BRANCH   3  28
DOCKED: ATOM     28  O   UNL d   1     -14.619  11.183   4.049 -0.08 +0.05    -0.278 OA
DOCKED: BRANCH  28  29
DOCKED: ATOM     29  P   UNL d   1     -13.902  10.684   2.717 -0.20 -0.09    +0.473 P 
DOCKED: ATOM     30  O   UNL d   1     -13.477   9.260   2.713 -0.28 +0.02    -0.228 OA
DOCKED: BRANCH  29  31
DOCKED: ATOM     31  O   UNL d   1     -14.994  11.119   1.632 -0.28 +0.08    -0.303 OA
DOCKED: ATOM     32  H   UNL d   1     -15.840  10.656   1.835 -0.25 -0.07    +0.222 HD
DOCKED: ENDBRANCH  29  31
DOCKED: BRANCH  29  33
DOCKED: ATOM     33  O   UNL d   1     -12.759  11.776   2.523 -0.24 +0.07    -0.303 OA
DOCKED: ATOM     34  H   UNL d   1     -12.196  11.519   1.753 -0.41 -0.10    +0.222 HD
DOCKED: ENDBRANCH  29  33
DOCKED: ENDBRANCH  28  29
DOCKED: ENDBRANCH   3  28
DOCKED: BRANCH   5  35
DOCKED: ATOM     35  O   UNL d   1     -18.645  12.622   5.835 +0.00 +0.03    -0.278 OA
DOCKED: BRANCH  35  36
DOCKED: ATOM     36  P   UNL d   1     -20.223  12.751   6.028 +0.00 -0.02    +0.473 P 
DOCKED: ATOM     37  O   UNL d   1     -20.782  14.129   5.865 +0.00 +0.01    -0.228 OA
DOCKED: BRANCH  36  38
DOCKED: ATOM     38  O   UNL d   1     -20.769  11.694   4.970 +0.00 +0.00    -0.303 OA
DOCKED: ATOM     39  H   UNL d   1     -20.959  10.848   5.430 +0.00 +0.00    +0.222 HD
DOCKED: ENDBRANCH  36  38
DOCKED: BRANCH  36  40
DOCKED: ATOM     40  O   UNL d   1     -20.453  12.041   7.433 +0.00 +0.01    -0.303 OA
DOCKED: ATOM     41  H   UNL d   1     -20.306  11.071   7.378 +0.00 -0.01    +0.222 HD
DOCKED: ENDBRANCH  36  40
DOCKED: ENDBRANCH  35  36
DOCKED: ENDBRANCH   5  35
DOCKED: BRANCH   4  42
DOCKED: ATOM     42  O   UNL d   1     -17.246  12.113   3.330 -0.03 +0.03    -0.278 OA
DOCKED: BRANCH  42  43
DOCKED: ATOM     43  P   UNL d   1     -17.937  11.015   2.402 -0.06 -0.06    +0.473 P 
DOCKED: ATOM     44  O   UNL d   1     -17.577   9.589   2.641 -0.15 +0.03    -0.228 OA
DOCKED: BRANCH  43  45
DOCKED: ATOM     45  O   UNL d   1     -19.486  11.333   2.578 -0.02 +0.01    -0.303 OA
DOCKED: ATOM     46  H   UNL d   1     -19.822  11.013   3.439 +0.02 -0.00    +0.222 HD
DOCKED: ENDBRANCH  43  45
DOCKED: BRANCH  43  47
DOCKED: ATOM     47  O   UNL d   1     -17.658  11.559   0.921 -0.14 +0.08    -0.303 OA
DOCKED: ATOM     48  H   UNL d   1     -16.855  11.126   0.563 -0.40 -0.14    +0.222 HD
DOCKED: ENDBRANCH  43  47
DOCKED: ENDBRANCH  42  43
DOCKED: ENDBRANCH   4  42
DOCKED: TORSDOF 24
DOCKED: TER
DOCKED: ENDMDL
________________________________________________________________________________


	BEGINNING GENETIC ALGORITHM DOCKING 48 of 100
Run: 48 Seed: 1590897880 1021510744 [ Run 48 of 100 GA/GALS ]
Beginning LAMARCKIAN GENETIC ALGORITHM (LGA), with a maximum of 25000000 energy evaluations.

Final-Value: -19.958


	FINAL GENETIC ALGORITHM DOCKED STATE
	_______________________________________________


Detailed state:  trans 9.275 -14.114 7.126 quatxyzw 0.705486 0.663605 0.005900 0.248762 center 0.035 0.082 -0.065 ntor 24 156.3342 96.0190 94.7271 87.0094 137.1415 148.1924 80.1182 29.2977 28.1545 118.5123 28.4654 179.3134 -24.4607 115.3503 -147.9918 -174.9823 -33.3685 157.1786 -13.3004 -21.0034 0.7630 26.8851 -14.1394 -16.2388
State:	  9.275 -14.114   7.126   0.728  0.685  0.006 151.191    156.33   96.02   94.73   87.01  137.14  148.19   80.12   29.30   28.15  118.51   28.47  179.31  -24.46  115.35 -147.99 -174.98  -33.37  157.18  -13.30  -21.00    0.76   26.89  -14.14  -16.24

DOCKED: MODEL       48
DOCKED: USER    Run = 48
DOCKED: USER    DPF = D:/Protein_go_brrr/autodock/final/mut_D99N/IHP/dock.dpf
DOCKED: USER  
DOCKED: USER    Estimated Free Energy of Binding    =   +1.02 kcal/mol  [=(1)+(2)+(3)-(4)]
DOCKED: USER    
DOCKED: USER    (1) Final Intermolecular Energy     =   -6.14 kcal/mol
DOCKED: USER        vdW + Hbond + desolv Energy     =   -6.00 kcal/mol
DOCKED: USER        Electrostatic Energy            =   -0.14 kcal/mol
DOCKED: USER    (2) Final Total Internal Energy     =  -13.82 kcal/mol
DOCKED: USER    (3) Torsional Free Energy           =   +7.16 kcal/mol
DOCKED: USER    (4) Unbound System's Energy  [=(2)] =  -13.82 kcal/mol
DOCKED: USER    
DOCKED: USER    
DOCKED: USER    NEWDPF move IHP_ideal_opt.pdbqt
DOCKED: USER    NEWDPF about 0.035000 0.082000 -0.065000
DOCKED: USER    NEWDPF tran0 9.274729 -14.113671 7.126199
DOCKED: USER    NEWDPF quaternion0 0.705486 0.663605 0.005900 0.248762
DOCKED: USER    NEWDPF axisangle0 0.728383 0.685143 0.006092 151.191431
DOCKED: USER    NEWDPF quat0 0.728383 0.685143 0.006092 151.191431
DOCKED: USER    NEWDPF dihe0 156.33 96.02 94.73 87.01 137.14 148.19 80.12 29.30 28.15 118.51 28.47 179.31 -24.46 115.35 -147.99 -174.98 -33.37 157.18 -13.30 -21.00 0.76 26.89 -14.14 -16.24 
DOCKED: USER  keepresnum = 1 
DOCKED: USER  
DOCKED: REMARK  24 active torsions:
DOCKED: REMARK  status: ('A' for Active; 'I' for Inactive)
DOCKED: REMARK    1  A    between atoms: C_1  and  O_7 
DOCKED: REMARK    2  A    between atoms: C_2  and  O_12 
DOCKED: REMARK    3  A    between atoms: C_3  and  O_17 
DOCKED: REMARK    4  A    between atoms: C_4  and  O_22 
DOCKED: REMARK    5  A    between atoms: C_5  and  O_27 
DOCKED: REMARK    6  A    between atoms: C_6  and  O_32 
DOCKED: REMARK    7  A    between atoms: O_7  and  P_8 
DOCKED: REMARK    8  A    between atoms: P_8  and  O_10 
DOCKED: REMARK    9  A    between atoms: P_8  and  O_11 
DOCKED: REMARK   10  A    between atoms: O_12  and  P_13 
DOCKED: REMARK   11  A    between atoms: P_13  and  O_15 
DOCKED: REMARK   12  A    between atoms: P_13  and  O_16 
DOCKED: REMARK   13  A    between atoms: O_17  and  P_18 
DOCKED: REMARK   14  A    between atoms: P_18  and  O_20 
DOCKED: REMARK   15  A    between atoms: P_18  and  O_21 
DOCKED: REMARK   16  A    between atoms: O_22  and  P_23 
DOCKED: REMARK   17  A    between atoms: P_23  and  O_25 
DOCKED: REMARK   18  A    between atoms: P_23  and  O_26 
DOCKED: REMARK   19  A    between atoms: O_27  and  P_28 
DOCKED: REMARK   20  A    between atoms: P_28  and  O_30 
DOCKED: REMARK   21  A    between atoms: P_28  and  O_31 
DOCKED: REMARK   22  A    between atoms: O_32  and  P_33 
DOCKED: REMARK   23  A    between atoms: P_33  and  O_35 
DOCKED: REMARK   24  A    between atoms: P_33  and  O_36 
DOCKED: USER                              x       y       z     vdW  Elec       q    Type
DOCKED: USER                           _______ _______ _______ _____ _____    ______ ____
DOCKED: ROOT
DOCKED: ATOM      1  C   UNL d   1       8.335 -12.664   7.162 -0.13 -0.07    +0.194 C 
DOCKED: ATOM      2  C   UNL d   1       7.550 -13.965   7.339 -0.02 -0.06    +0.194 C 
DOCKED: ATOM      3  C   UNL d   1       8.019 -15.047   6.363 +0.04 -0.05    +0.194 C 
DOCKED: ATOM      4  C   UNL d   1       9.528 -15.274   6.397 -0.16 -0.02    +0.194 C 
DOCKED: ATOM      5  C   UNL d   1      10.350 -13.993   6.339 -0.20 -0.04    +0.194 C 
DOCKED: ATOM      6  C   UNL d   1       9.844 -12.890   7.270 -0.17 -0.05    +0.194 C 
DOCKED: ENDROOT
DOCKED: BRANCH   1   7
DOCKED: ATOM      7  O   UNL d   1       7.962 -11.771   8.214 -0.18 +0.10    -0.278 OA
DOCKED: BRANCH   7   8
DOCKED: ATOM      8  P   UNL d   1       7.675 -10.243   7.847 -0.30 -0.18    +0.473 P 
DOCKED: ATOM      9  O   UNL d   1       7.209 -10.006   6.453 -1.07 +0.02    -0.228 OA
DOCKED: BRANCH   8  10
DOCKED: ATOM     10  O   UNL d   1       6.624  -9.771   8.950 -0.24 +0.33    -0.303 OA
DOCKED: ATOM     11  H   UNL d   1       6.408 -10.519   9.537 -0.24 -0.28    +0.222 HD
DOCKED: ENDBRANCH   8  10
DOCKED: BRANCH   8  12
DOCKED: ATOM     12  O   UNL d   1       8.988  -9.461   8.282 -0.69 +0.07    -0.303 OA
DOCKED: ATOM     13  H   UNL d   1       9.812  -9.864   7.928 +0.11 -0.06    +0.222 HD
DOCKED: ENDBRANCH   8  12
DOCKED: ENDBRANCH   7   8
DOCKED: ENDBRANCH   1   7
DOCKED: BRANCH   2  14
DOCKED: ATOM     14  O   UNL d   1       7.737 -14.445   8.676 -0.05 +0.05    -0.278 OA
DOCKED: BRANCH  14  15
DOCKED: ATOM     15  P   UNL d   1       6.463 -14.379   9.645 -0.05 -0.08    +0.473 P 
DOCKED: ATOM     16  O   UNL d   1       6.588 -15.068  10.967 -0.02 +0.03    -0.228 OA
DOCKED: BRANCH  15  17
DOCKED: ATOM     17  O   UNL d   1       6.165 -12.820   9.786 -0.39 +0.07    -0.303 OA
DOCKED: ATOM     18  H   UNL d   1       6.813 -12.291   9.283 +0.08 -0.08    +0.222 HD
DOCKED: ENDBRANCH  15  17
DOCKED: BRANCH  15  19
DOCKED: ATOM     19  O   UNL d   1       5.248 -14.855   8.735 -0.09 +0.04    -0.303 OA
DOCKED: ATOM     20  H   UNL d   1       5.543 -15.453   8.023 +0.06 -0.03    +0.222 HD
DOCKED: ENDBRANCH  15  19
DOCKED: ENDBRANCH  14  15
DOCKED: ENDBRANCH   2  14
DOCKED: BRANCH   6  21
DOCKED: ATOM     21  O   UNL d   1      10.478 -11.681   6.859 -0.20 +0.08    -0.278 OA
DOCKED: BRANCH  21  22
DOCKED: ATOM     22  P   UNL d   1      11.723 -11.119   7.684 -0.12 -0.17    +0.473 P 
DOCKED: ATOM     23  O   UNL d   1      11.590  -9.786   8.339 -0.21 +0.10    -0.228 OA
DOCKED: BRANCH  22  24
DOCKED: ATOM     24  O   UNL d   1      12.025 -12.325   8.678 -0.03 +0.07    -0.303 OA
DOCKED: ATOM     25  H   UNL d   1      12.408 -13.071   8.150 +0.05 -0.05    +0.222 HD
DOCKED: ENDBRANCH  22  24
DOCKED: BRANCH  22  26
DOCKED: ATOM     26  O   UNL d   1      12.912 -11.263   6.618 -0.21 +0.14    -0.303 OA
DOCKED: ATOM     27  H   UNL d   1      12.693 -11.978   5.987 +0.09 -0.10    +0.222 HD
DOCKED: ENDBRANCH  22  26
DOCKED: ENDBRANCH  21  22
DOCKED: ENDBRANCH   6  21
DOCKED: BRANCH   3  28
DOCKED: ATOM     28  O   UNL d   1       7.442 -16.278   6.779 -0.10 +0.04    -0.278 OA
DOCKED: BRANCH  28  29
DOCKED: ATOM     29  P   UNL d   1       6.832 -17.284   5.706 -0.12 -0.06    +0.473 P 
DOCKED: ATOM     30  O   UNL d   1       6.706 -18.696   6.151 -0.03 +0.02    -0.228 OA
DOCKED: BRANCH  29  31
DOCKED: ATOM     31  O   UNL d   1       5.478 -16.514   5.339 -0.18 +0.07    -0.303 OA
DOCKED: ATOM     32  H   UNL d   1       5.396 -16.474   4.359 -0.28 -0.09    +0.222 HD
DOCKED: ENDBRANCH  29  31
DOCKED: BRANCH  29  33
DOCKED: ATOM     33  O   UNL d   1       7.748 -17.010   4.433 -0.20 +0.01    -0.303 OA
DOCKED: ATOM     34  H   UNL d   1       8.540 -17.600   4.474 +0.05 +0.00    +0.222 HD
DOCKED: ENDBRANCH  29  33
DOCKED: ENDBRANCH  28  29
DOCKED: ENDBRANCH   3  28
DOCKED: BRANCH   5  35
DOCKED: ATOM     35  O   UNL d   1      11.657 -14.352   6.784 -0.06 +0.05    -0.278 OA
DOCKED: BRANCH  35  36
DOCKED: ATOM     36  P   UNL d   1      12.904 -14.235   5.796 -0.11 -0.18    +0.473 P 
DOCKED: ATOM     37  O   UNL d   1      12.646 -13.503   4.516 -0.30 +0.14    -0.228 OA
DOCKED: BRANCH  36  38
DOCKED: ATOM     38  O   UNL d   1      13.998 -13.553   6.730 -0.06 +0.12    -0.303 OA
DOCKED: ATOM     39  H   UNL d   1      13.572 -12.846   7.261 +0.06 -0.07    +0.222 HD
DOCKED: ENDBRANCH  36  38
DOCKED: BRANCH  36  40
DOCKED: ATOM     40  O   UNL d   1      13.387 -15.745   5.679 -0.07 +0.06    -0.303 OA
DOCKED: ATOM     41  H   UNL d   1      12.805 -16.269   5.084 +0.04 -0.00    +0.222 HD
DOCKED: ENDBRANCH  36  40
DOCKED: ENDBRANCH  35  36
DOCKED: ENDBRANCH   5  35
DOCKED: BRANCH   4  42
DOCKED: ATOM     42  O   UNL d   1       9.858 -16.040   5.233 -0.17 -0.00    -0.278 OA
DOCKED: BRANCH  42  43
DOCKED: ATOM     43  P   UNL d   1      10.697 -17.385   5.407 -0.07 +0.02    +0.473 P 
DOCKED: ATOM     44  O   UNL d   1      11.463 -17.874   4.226 -0.12 -0.05    -0.228 OA
DOCKED: BRANCH  43  45
DOCKED: ATOM     45  O   UNL d   1      11.597 -17.073   6.682 -0.02 +0.01    -0.303 OA
DOCKED: ATOM     46  H   UNL d   1      11.988 -16.178   6.633 +0.04 -0.02    +0.222 HD
DOCKED: ENDBRANCH  43  45
DOCKED: BRANCH  43  47
DOCKED: ATOM     47  O   UNL d   1       9.624 -18.411   6.009 -0.02 +0.00    -0.303 OA
DOCKED: ATOM     48  H   UNL d   1       8.769 -17.948   6.134 +0.03 -0.01    +0.222 HD
DOCKED: ENDBRANCH  43  47
DOCKED: ENDBRANCH  42  43
DOCKED: ENDBRANCH   4  42
DOCKED: TORSDOF 24
DOCKED: TER
DOCKED: ENDMDL
________________________________________________________________________________


	BEGINNING GENETIC ALGORITHM DOCKING 49 of 100
Run: 49 Seed: 2093957938 1930333047 [ Run 49 of 100 GA/GALS ]
Beginning LAMARCKIAN GENETIC ALGORITHM (LGA), with a maximum of 25000000 energy evaluations.

Final-Value: -17.189


	FINAL GENETIC ALGORITHM DOCKED STATE
	_______________________________________________


Detailed state:  trans 3.703 0.374 -19.027 quatxyzw 0.364174 -0.522857 0.531070 -0.558536 center 0.035 0.082 -0.065 ntor 24 -54.0446 35.8189 167.5803 31.4842 31.3372 -72.1384 3.5796 174.9436 36.3154 108.6423 44.6629 110.8386 175.6070 -177.5688 -91.9538 117.0261 -62.7191 -179.3464 42.1755 -2.6055 -9.7932 -20.1071 -172.7277 11.9847
State:	  3.703   0.374 -19.027   0.439 -0.630  0.640 -112.091    -54.04   35.82  167.58   31.48   31.34  -72.14    3.58  174.94   36.32  108.64   44.66  110.84  175.61 -177.57  -91.95  117.03  -62.72 -179.35   42.18   -2.61   -9.79  -20.11 -172.73   11.98

DOCKED: MODEL       49
DOCKED: USER    Run = 49
DOCKED: USER    DPF = D:/Protein_go_brrr/autodock/final/mut_D99N/IHP/dock.dpf
DOCKED: USER  
DOCKED: USER    Estimated Free Energy of Binding    =   +3.47 kcal/mol  [=(1)+(2)+(3)-(4)]
DOCKED: USER    
DOCKED: USER    (1) Final Intermolecular Energy     =   -3.69 kcal/mol
DOCKED: USER        vdW + Hbond + desolv Energy     =   -3.58 kcal/mol
DOCKED: USER        Electrostatic Energy            =   -0.10 kcal/mol
DOCKED: USER    (2) Final Total Internal Energy     =  -13.50 kcal/mol
DOCKED: USER    (3) Torsional Free Energy           =   +7.16 kcal/mol
DOCKED: USER    (4) Unbound System's Energy  [=(2)] =  -13.50 kcal/mol
DOCKED: USER    
DOCKED: USER    
DOCKED: USER    NEWDPF move IHP_ideal_opt.pdbqt
DOCKED: USER    NEWDPF about 0.035000 0.082000 -0.065000
DOCKED: USER    NEWDPF tran0 3.702514 0.374222 -19.027049
DOCKED: USER    NEWDPF quaternion0 0.364174 -0.522857 0.531070 -0.558536
DOCKED: USER    NEWDPF axisangle0 0.439038 -0.630343 0.640245 -112.090764
DOCKED: USER    NEWDPF quat0 0.439038 -0.630343 0.640245 -112.090764
DOCKED: USER    NEWDPF dihe0 -54.04 35.82 167.58 31.48 31.34 -72.14 3.58 174.94 36.32 108.64 44.66 110.84 175.61 -177.57 -91.95 117.03 -62.72 -179.35 42.18 -2.61 -9.79 -20.11 -172.73 11.98 
DOCKED: USER  keepresnum = 1 
DOCKED: USER  
DOCKED: REMARK  24 active torsions:
DOCKED: REMARK  status: ('A' for Active; 'I' for Inactive)
DOCKED: REMARK    1  A    between atoms: C_1  and  O_7 
DOCKED: REMARK    2  A    between atoms: C_2  and  O_12 
DOCKED: REMARK    3  A    between atoms: C_3  and  O_17 
DOCKED: REMARK    4  A    between atoms: C_4  and  O_22 
DOCKED: REMARK    5  A    between atoms: C_5  and  O_27 
DOCKED: REMARK    6  A    between atoms: C_6  and  O_32 
DOCKED: REMARK    7  A    between atoms: O_7  and  P_8 
DOCKED: REMARK    8  A    between atoms: P_8  and  O_10 
DOCKED: REMARK    9  A    between atoms: P_8  and  O_11 
DOCKED: REMARK   10  A    between atoms: O_12  and  P_13 
DOCKED: REMARK   11  A    between atoms: P_13  and  O_15 
DOCKED: REMARK   12  A    between atoms: P_13  and  O_16 
DOCKED: REMARK   13  A    between atoms: O_17  and  P_18 
DOCKED: REMARK   14  A    between atoms: P_18  and  O_20 
DOCKED: REMARK   15  A    between atoms: P_18  and  O_21 
DOCKED: REMARK   16  A    between atoms: O_22  and  P_23 
DOCKED: REMARK   17  A    between atoms: P_23  and  O_25 
DOCKED: REMARK   18  A    between atoms: P_23  and  O_26 
DOCKED: REMARK   19  A    between atoms: O_27  and  P_28 
DOCKED: REMARK   20  A    between atoms: P_28  and  O_30 
DOCKED: REMARK   21  A    between atoms: P_28  and  O_31 
DOCKED: REMARK   22  A    between atoms: O_32  and  P_33 
DOCKED: REMARK   23  A    between atoms: P_33  and  O_35 
DOCKED: REMARK   24  A    between atoms: P_33  and  O_36 
DOCKED: USER                              x       y       z     vdW  Elec       q    Type
DOCKED: USER                           _______ _______ _______ _____ _____    ______ ____
DOCKED: ROOT
DOCKED: ATOM      1  C   UNL d   1       4.273  -0.272 -17.530 -0.20 +0.06    +0.194 C 
DOCKED: ATOM      2  C   UNL d   1       5.267  -0.320 -18.692 -0.13 +0.05    +0.194 C 
DOCKED: ATOM      3  C   UNL d   1       4.597  -0.765 -19.993 -0.12 +0.05    +0.194 C 
DOCKED: ATOM      4  C   UNL d   1       3.348   0.045 -20.334 -0.07 +0.05    +0.194 C 
DOCKED: ATOM      5  C   UNL d   1       2.381   0.215 -19.170 -0.10 +0.08    +0.194 C 
DOCKED: ATOM      6  C   UNL d   1       3.059   0.600 -17.853 -0.11 +0.06    +0.194 C 
DOCKED: ENDROOT
DOCKED: BRANCH   1   7
DOCKED: ATOM      7  O   UNL d   1       4.930   0.313 -16.404 -0.11 -0.08    -0.278 OA
DOCKED: BRANCH   7   8
DOCKED: ATOM      8  P   UNL d   1       5.894  -0.609 -15.524 -0.21 +0.16    +0.473 P 
DOCKED: ATOM      9  O   UNL d   1       5.690  -0.512 -14.053 -0.20 -0.07    -0.228 OA
DOCKED: BRANCH   8  10
DOCKED: ATOM     10  O   UNL d   1       5.651  -2.078 -16.096 -0.67 -0.14    -0.303 OA
DOCKED: ATOM     11  H   UNL d   1       6.474  -2.598 -16.022 -0.26 +0.06    +0.222 HD
DOCKED: ENDBRANCH   8  10
DOCKED: BRANCH   8  12
DOCKED: ATOM     12  O   UNL d   1       7.360  -0.288 -16.043 -0.15 -0.11    -0.303 OA
DOCKED: ATOM     13  H   UNL d   1       7.369   0.265 -16.857 +0.07 +0.06    +0.222 HD
DOCKED: ENDBRANCH   8  12
DOCKED: ENDBRANCH   7   8
DOCKED: ENDBRANCH   1   7
DOCKED: BRANCH   2  14
DOCKED: ATOM     14  O   UNL d   1       5.819   0.988 -18.887 -0.02 -0.05    -0.278 OA
DOCKED: BRANCH  14  15
DOCKED: ATOM     15  P   UNL d   1       7.416   1.088 -18.953 +0.01 +0.08    +0.473 P 
DOCKED: ATOM     16  O   UNL d   1       8.076   1.984 -17.952 -0.01 -0.04    -0.228 OA
DOCKED: BRANCH  15  17
DOCKED: ATOM     17  O   UNL d   1       7.904  -0.425 -18.843 -0.05 -0.07    -0.303 OA
DOCKED: ATOM     18  H   UNL d   1       7.710  -0.917 -19.664 +0.05 +0.04    +0.222 HD
DOCKED: ENDBRANCH  15  17
DOCKED: BRANCH  15  19
DOCKED: ATOM     19  O   UNL d   1       7.730   1.415 -20.478 -0.00 -0.04    -0.303 OA
DOCKED: ATOM     20  H   UNL d   1       7.043   1.060 -21.071 +0.02 +0.03    +0.222 HD
DOCKED: ENDBRANCH  15  19
DOCKED: ENDBRANCH  14  15
DOCKED: ENDBRANCH   2  14
DOCKED: BRANCH   6  21
DOCKED: ATOM     21  O   UNL d   1       2.102   0.386 -16.819 -0.06 -0.12    -0.278 OA
DOCKED: BRANCH  21  22
DOCKED: ATOM     22  P   UNL d   1       1.499   1.632 -16.026 -0.12 +0.28    +0.473 P 
DOCKED: ATOM     23  O   UNL d   1       2.436   2.489 -15.243 -0.16 -0.09    -0.228 OA
DOCKED: BRANCH  22  24
DOCKED: ATOM     24  O   UNL d   1       0.701   2.392 -17.174 -0.09 -0.19    -0.303 OA
DOCKED: ATOM     25  H   UNL d   1       1.203   2.285 -18.022 +0.05 +0.12    +0.222 HD
DOCKED: ENDBRANCH  22  24
DOCKED: BRANCH  22  26
DOCKED: ATOM     26  O   UNL d   1       0.312   0.947 -15.195 -0.75 -0.30    -0.303 OA
DOCKED: ATOM     27  H   UNL d   1       0.521   0.991 -14.240 +0.12 +0.18    +0.222 HD
DOCKED: ENDBRANCH  22  26
DOCKED: ENDBRANCH  21  22
DOCKED: ENDBRANCH   6  21
DOCKED: BRANCH   3  28
DOCKED: ATOM     28  O   UNL d   1       5.511  -0.514 -21.053 -0.05 -0.05    -0.278 OA
DOCKED: BRANCH  28  29
DOCKED: ATOM     29  P   UNL d   1       6.549  -1.635 -21.503 -0.08 +0.06    +0.473 P 
DOCKED: ATOM     30  O   UNL d   1       6.083  -2.543 -22.582 -0.13 -0.02    -0.228 OA
DOCKED: BRANCH  29  31
DOCKED: ATOM     31  O   UNL d   1       7.825  -0.723 -21.821 -0.02 -0.03    -0.303 OA
DOCKED: ATOM     32  H   UNL d   1       8.032  -0.184 -21.023 +0.03 +0.03    +0.222 HD
DOCKED: ENDBRANCH  29  31
DOCKED: BRANCH  29  33
DOCKED: ATOM     33  O   UNL d   1       6.936  -2.309 -20.113 -0.08 -0.06    -0.303 OA
DOCKED: ATOM     34  H   UNL d   1       7.919  -2.297 -20.013 +0.05 +0.04    +0.222 HD
DOCKED: ENDBRANCH  29  33
DOCKED: ENDBRANCH  28  29
DOCKED: ENDBRANCH   3  28
DOCKED: BRANCH   5  35
DOCKED: ATOM     35  O   UNL d   1       1.524   1.296 -19.533 -0.06 -0.14    -0.278 OA
DOCKED: BRANCH  35  36
DOCKED: ATOM     36  P   UNL d   1       2.125   2.601 -20.225 +0.02 +0.13    +0.473 P 
DOCKED: ATOM     37  O   UNL d   1       3.600   2.793 -20.069 -0.00 -0.04    -0.228 OA
DOCKED: BRANCH  36  38
DOCKED: ATOM     38  O   UNL d   1       1.644   2.422 -21.732 +0.00 -0.07    -0.303 OA
DOCKED: ATOM     39  H   UNL d   1       1.635   1.466 -21.955 +0.02 +0.06    +0.222 HD
DOCKED: ENDBRANCH  36  38
DOCKED: BRANCH  36  40
DOCKED: ATOM     40  O   UNL d   1       1.184   3.751 -19.657 +0.00 -0.09    -0.303 OA
DOCKED: ATOM     41  H   UNL d   1       1.306   3.876 -18.689 +0.02 +0.07    +0.222 HD
DOCKED: ENDBRANCH  36  40
DOCKED: ENDBRANCH  35  36
DOCKED: ENDBRANCH   5  35
DOCKED: BRANCH   4  42
DOCKED: ATOM     42  O   UNL d   1       2.653  -0.677 -21.357 -0.05 -0.08    -0.278 OA
DOCKED: BRANCH  42  43
DOCKED: ATOM     43  P   UNL d   1       2.830  -0.224 -22.876 +0.01 +0.08    +0.473 P 
DOCKED: ATOM     44  O   UNL d   1       1.598  -0.104 -23.705 -0.01 -0.04    -0.228 OA
DOCKED: BRANCH  43  45
DOCKED: ATOM     45  O   UNL d   1       3.659   1.128 -22.743 -0.00 -0.04    -0.303 OA
DOCKED: ATOM     46  H   UNL d   1       3.478   1.576 -21.893 +0.01 +0.04    +0.222 HD
DOCKED: ENDBRANCH  43  45
DOCKED: BRANCH  43  47
DOCKED: ATOM     47  O   UNL d   1       3.943  -1.235 -23.433 -0.01 -0.04    -0.303 OA
DOCKED: ATOM     48  H   UNL d   1       4.807  -1.019 -23.025 +0.03 +0.03    +0.222 HD
DOCKED: ENDBRANCH  43  47
DOCKED: ENDBRANCH  42  43
DOCKED: ENDBRANCH   4  42
DOCKED: TORSDOF 24
DOCKED: TER
DOCKED: ENDMDL
________________________________________________________________________________


	BEGINNING GENETIC ALGORITHM DOCKING 50 of 100
Run: 50 Seed: 2139832943 295661191 [ Run 50 of 100 GA/GALS ]
Beginning LAMARCKIAN GENETIC ALGORITHM (LGA), with a maximum of 25000000 energy evaluations.

Final-Value: -17.269


	FINAL GENETIC ALGORITHM DOCKED STATE
	_______________________________________________


Detailed state:  trans -10.588 -9.911 9.268 quatxyzw 0.058528 0.581011 0.768626 0.261181 center 0.035 0.082 -0.065 ntor 24 141.3416 179.9886 140.8571 -24.0043 162.7839 91.4881 -160.9277 -78.5927 124.5443 79.6867 33.2091 -69.9857 -87.6737 -180.0000 -142.3273 -146.9077 105.4924 -64.6346 52.3474 9.2328 6.2257 -6.0252 -16.3046 166.4190
State:	-10.588  -9.911   9.268   0.061  0.602  0.796 149.720    141.34  179.99  140.86  -24.00  162.78   91.49 -160.93  -78.59  124.54   79.69   33.21  -69.99  -87.67 -180.00 -142.33 -146.91  105.49  -64.63   52.35    9.23    6.23   -6.03  -16.30  166.42

DOCKED: MODEL       50
DOCKED: USER    Run = 50
DOCKED: USER    DPF = D:/Protein_go_brrr/autodock/final/mut_D99N/IHP/dock.dpf
DOCKED: USER  
DOCKED: USER    Estimated Free Energy of Binding    =   +4.35 kcal/mol  [=(1)+(2)+(3)-(4)]
DOCKED: USER    
DOCKED: USER    (1) Final Intermolecular Energy     =   -2.81 kcal/mol
DOCKED: USER        vdW + Hbond + desolv Energy     =   -2.75 kcal/mol
DOCKED: USER        Electrostatic Energy            =   -0.06 kcal/mol
DOCKED: USER    (2) Final Total Internal Energy     =  -14.46 kcal/mol
DOCKED: USER    (3) Torsional Free Energy           =   +7.16 kcal/mol
DOCKED: USER    (4) Unbound System's Energy  [=(2)] =  -14.46 kcal/mol
DOCKED: USER    
DOCKED: USER    
DOCKED: USER    NEWDPF move IHP_ideal_opt.pdbqt
DOCKED: USER    NEWDPF about 0.035000 0.082000 -0.065000
DOCKED: USER    NEWDPF tran0 -10.587628 -9.910835 9.267832
DOCKED: USER    NEWDPF quaternion0 0.058528 0.581011 0.768626 0.261181
DOCKED: USER    NEWDPF axisangle0 0.060632 0.601903 0.796264 149.719692
DOCKED: USER    NEWDPF quat0 0.060632 0.601903 0.796264 149.719692
DOCKED: USER    NEWDPF dihe0 141.34 179.99 140.86 -24.00 162.78 91.49 -160.93 -78.59 124.54 79.69 33.21 -69.99 -87.67 -180.00 -142.33 -146.91 105.49 -64.63 52.35 9.23 6.23 -6.03 -16.30 166.42 
DOCKED: USER  keepresnum = 1 
DOCKED: USER  
DOCKED: REMARK  24 active torsions:
DOCKED: REMARK  status: ('A' for Active; 'I' for Inactive)
DOCKED: REMARK    1  A    between atoms: C_1  and  O_7 
DOCKED: REMARK    2  A    between atoms: C_2  and  O_12 
DOCKED: REMARK    3  A    between atoms: C_3  and  O_17 
DOCKED: REMARK    4  A    between atoms: C_4  and  O_22 
DOCKED: REMARK    5  A    between atoms: C_5  and  O_27 
DOCKED: REMARK    6  A    between atoms: C_6  and  O_32 
DOCKED: REMARK    7  A    between atoms: O_7  and  P_8 
DOCKED: REMARK    8  A    between atoms: P_8  and  O_10 
DOCKED: REMARK    9  A    between atoms: P_8  and  O_11 
DOCKED: REMARK   10  A    between atoms: O_12  and  P_13 
DOCKED: REMARK   11  A    between atoms: P_13  and  O_15 
DOCKED: REMARK   12  A    between atoms: P_13  and  O_16 
DOCKED: REMARK   13  A    between atoms: O_17  and  P_18 
DOCKED: REMARK   14  A    between atoms: P_18  and  O_20 
DOCKED: REMARK   15  A    between atoms: P_18  and  O_21 
DOCKED: REMARK   16  A    between atoms: O_22  and  P_23 
DOCKED: REMARK   17  A    between atoms: P_23  and  O_25 
DOCKED: REMARK   18  A    between atoms: P_23  and  O_26 
DOCKED: REMARK   19  A    between atoms: O_27  and  P_28 
DOCKED: REMARK   20  A    between atoms: P_28  and  O_30 
DOCKED: REMARK   21  A    between atoms: P_28  and  O_31 
DOCKED: REMARK   22  A    between atoms: O_32  and  P_33 
DOCKED: REMARK   23  A    between atoms: P_33  and  O_35 
DOCKED: REMARK   24  A    between atoms: P_33  and  O_36 
DOCKED: USER                              x       y       z     vdW  Elec       q    Type
DOCKED: USER                           _______ _______ _______ _____ _____    ______ ____
DOCKED: ROOT
DOCKED: ATOM      1  C   UNL d   1     -12.247  -9.431   9.246 -0.01 +0.03    +0.194 C 
DOCKED: ATOM      2  C   UNL d   1     -11.476  -9.204   7.944 -0.02 +0.04    +0.194 C 
DOCKED: ATOM      3  C   UNL d   1     -10.082  -8.629   8.204 -0.08 +0.05    +0.194 C 
DOCKED: ATOM      4  C   UNL d   1      -9.277  -9.438   9.218 -0.09 +0.08    +0.194 C 
DOCKED: ATOM      5  C   UNL d   1     -10.047  -9.786  10.486 -0.04 +0.05    +0.194 C 
DOCKED: ATOM      6  C   UNL d   1     -11.463 -10.303  10.228 -0.00 +0.03    +0.194 C 
DOCKED: ENDROOT
DOCKED: BRANCH   1   7
DOCKED: ATOM      7  O   UNL d   1     -13.458 -10.123   8.933 +0.00 -0.03    -0.278 OA
DOCKED: BRANCH   7   8
DOCKED: ATOM      8  P   UNL d   1     -14.600  -9.336   8.141 +0.00 +0.06    +0.473 P 
DOCKED: ATOM      9  O   UNL d   1     -14.737  -7.897   8.496 -0.00 -0.04    -0.228 OA
DOCKED: BRANCH   8  10
DOCKED: ATOM     10  O   UNL d   1     -14.238  -9.572   6.605 -0.00 -0.04    -0.303 OA
DOCKED: ATOM     11  H   UNL d   1     -13.318  -9.885   6.531 +0.01 +0.03    +0.222 HD
DOCKED: ENDBRANCH   8  10
DOCKED: BRANCH   8  12
DOCKED: ATOM     12  O   UNL d   1     -15.908 -10.221   8.315 +0.00 -0.02    -0.303 OA
DOCKED: ATOM     13  H   UNL d   1     -16.704  -9.691   8.546 +0.00 +0.02    +0.222 HD
DOCKED: ENDBRANCH   8  12
DOCKED: ENDBRANCH   7   8
DOCKED: ENDBRANCH   1   7
DOCKED: BRANCH   2  14
DOCKED: ATOM     14  O   UNL d   1     -11.334 -10.456   7.262 -0.01 -0.04    -0.278 OA
DOCKED: BRANCH  14  15
DOCKED: ATOM     15  P   UNL d   1     -11.489 -10.424   5.668 +0.00 +0.05    +0.473 P 
DOCKED: ATOM     16  O   UNL d   1     -12.516 -11.337   5.075 -0.00 -0.01    -0.228 OA
DOCKED: BRANCH  15  17
DOCKED: ATOM     17  O   UNL d   1     -11.760  -8.890   5.336 -0.02 -0.05    -0.303 OA
DOCKED: ATOM     18  H   UNL d   1     -11.149  -8.310   5.829 +0.04 +0.05    +0.222 HD
DOCKED: ENDBRANCH  15  17
DOCKED: BRANCH  15  19
DOCKED: ATOM     19  O   UNL d   1     -10.007 -10.612   5.122 -0.01 -0.03    -0.303 OA
DOCKED: ATOM     20  H   UNL d   1      -9.522  -9.766   5.098 +0.05 +0.03    +0.222 HD
DOCKED: ENDBRANCH  15  19
DOCKED: ENDBRANCH  14  15
DOCKED: ENDBRANCH   2  14
DOCKED: BRANCH   6  21
DOCKED: ATOM     21  O   UNL d   1     -12.153 -10.253  11.475 +0.00 -0.03    -0.278 OA
DOCKED: BRANCH  21  22
DOCKED: ATOM     22  P   UNL d   1     -12.242 -11.561  12.384 +0.00 +0.05    +0.473 P 
DOCKED: ATOM     23  O   UNL d   1     -13.575 -12.205  12.565 +0.00 -0.01    -0.228 OA
DOCKED: BRANCH  22  24
DOCKED: ATOM     24  O   UNL d   1     -11.134 -12.493  11.722 +0.00 -0.04    -0.303 OA
DOCKED: ATOM     25  H   UNL d   1     -10.297 -12.394  12.243 +0.01 +0.04    +0.222 HD
DOCKED: ENDBRANCH  22  24
DOCKED: BRANCH  22  26
DOCKED: ATOM     26  O   UNL d   1     -11.508 -11.076  13.724 +0.00 -0.03    -0.303 OA
DOCKED: ATOM     27  H   UNL d   1     -10.540 -11.158  13.609 +0.01 +0.03    +0.222 HD
DOCKED: ENDBRANCH  22  26
DOCKED: ENDBRANCH  21  22
DOCKED: ENDBRANCH   6  21
DOCKED: BRANCH   3  28
DOCKED: ATOM     28  O   UNL d   1      -9.351  -8.713   6.988 -0.11 -0.07    -0.278 OA
DOCKED: BRANCH  28  29
DOCKED: ATOM     29  P   UNL d   1      -9.097  -7.409   6.110 -0.13 +0.12    +0.473 P 
DOCKED: ATOM     30  O   UNL d   1      -8.468  -7.642   4.784 -0.26 -0.04    -0.228 OA
DOCKED: BRANCH  29  31
DOCKED: ATOM     31  O   UNL d   1     -10.568  -6.778   6.115 -0.14 -0.11    -0.303 OA
DOCKED: ATOM     32  H   UNL d   1     -10.953  -6.872   5.213 +0.05 +0.09    +0.222 HD
DOCKED: ENDBRANCH  29  31
DOCKED: BRANCH  29  33
DOCKED: ATOM     33  O   UNL d   1      -8.308  -6.471   7.126 -0.33 -0.06    -0.303 OA
DOCKED: ATOM     34  H   UNL d   1      -8.470  -6.789   8.048 +0.07 +0.05    +0.222 HD
DOCKED: ENDBRANCH  29  33
DOCKED: ENDBRANCH  28  29
DOCKED: ENDBRANCH   3  28
DOCKED: BRANCH   5  35
DOCKED: ATOM     35  O   UNL d   1      -9.318 -10.846  11.102 -0.04 -0.11    -0.278 OA
DOCKED: BRANCH  35  36
DOCKED: ATOM     36  P   UNL d   1      -8.608 -10.621  12.512 -0.03 +0.16    +0.473 P 
DOCKED: ATOM     37  O   UNL d   1      -8.497 -11.835  13.379 -0.01 -0.05    -0.228 OA
DOCKED: BRANCH  36  38
DOCKED: ATOM     38  O   UNL d   1      -7.208  -9.999  12.076 -0.65 -0.23    -0.303 OA
DOCKED: ATOM     39  H   UNL d   1      -7.368  -9.214  11.509 +0.04 +0.17    +0.222 HD
DOCKED: ENDBRANCH  36  38
DOCKED: BRANCH  36  40
DOCKED: ATOM     40  O   UNL d   1      -9.411  -9.382  13.103 -0.01 -0.06    -0.303 OA
DOCKED: ATOM     41  H   UNL d   1     -10.368  -9.432  12.887 +0.01 +0.04    +0.222 HD
DOCKED: ENDBRANCH  36  40
DOCKED: ENDBRANCH  35  36
DOCKED: ENDBRANCH   5  35
DOCKED: BRANCH   4  42
DOCKED: ATOM     42  O   UNL d   1      -8.166  -8.624   9.609 -0.09 -0.16    -0.278 OA
DOCKED: BRANCH  42  43
DOCKED: ATOM     43  P   UNL d   1      -8.446  -7.164  10.188 -0.14 +0.14    +0.473 P 
DOCKED: ATOM     44  O   UNL d   1      -9.774  -6.554   9.900 -0.13 -0.05    -0.228 OA
DOCKED: BRANCH  43  45
DOCKED: ATOM     45  O   UNL d   1      -8.131  -7.337  11.738 -0.11 -0.08    -0.303 OA
DOCKED: ATOM     46  H   UNL d   1      -8.460  -8.193  12.077 +0.05 +0.06    +0.222 HD
DOCKED: ENDBRANCH  43  45
DOCKED: BRANCH  43  47
DOCKED: ATOM     47  O   UNL d   1      -7.176  -6.323   9.689 -0.23 -0.06    -0.303 OA
DOCKED: ATOM     48  H   UNL d   1      -7.457  -5.699   8.988 -0.44 -0.03    +0.222 HD
DOCKED: ENDBRANCH  43  47
DOCKED: ENDBRANCH  42  43
DOCKED: ENDBRANCH   4  42
DOCKED: TORSDOF 24
DOCKED: TER
DOCKED: ENDMDL
________________________________________________________________________________


	BEGINNING GENETIC ALGORITHM DOCKING 51 of 100
Run: 51 Seed: 654218651 1321985389 [ Run 51 of 100 GA/GALS ]
Beginning LAMARCKIAN GENETIC ALGORITHM (LGA), with a maximum of 25000000 energy evaluations.

Final-Value: -19.331


	FINAL GENETIC ALGORITHM DOCKED STATE
	_______________________________________________


Detailed state:  trans -1.803 -15.164 4.496 quatxyzw 0.474268 0.738993 0.256569 0.403896 center 0.035 0.082 -0.065 ntor 24 149.0730 146.6998 142.7588 8.4957 123.0228 83.4318 -61.3430 -1.5890 6.3874 88.6851 82.4297 -92.6823 -16.8440 -175.5223 178.7956 10.3818 -65.5340 96.1343 -31.4733 5.0395 12.9002 -12.3360 173.7123 13.7324
State:	 -1.803 -15.164   4.496   0.518  0.808  0.280 132.356    149.07  146.70  142.76    8.50  123.02   83.43  -61.34   -1.59    6.39   88.69   82.43  -92.68  -16.84 -175.52  178.80   10.38  -65.53   96.13  -31.47    5.04   12.90  -12.34  173.71   13.73

DOCKED: MODEL       51
DOCKED: USER    Run = 51
DOCKED: USER    DPF = D:/Protein_go_brrr/autodock/final/mut_D99N/IHP/dock.dpf
DOCKED: USER  
DOCKED: USER    Estimated Free Energy of Binding    =   +3.32 kcal/mol  [=(1)+(2)+(3)-(4)]
DOCKED: USER    
DOCKED: USER    (1) Final Intermolecular Energy     =   -3.84 kcal/mol
DOCKED: USER        vdW + Hbond + desolv Energy     =   -3.63 kcal/mol
DOCKED: USER        Electrostatic Energy            =   -0.21 kcal/mol
DOCKED: USER    (2) Final Total Internal Energy     =  -15.50 kcal/mol
DOCKED: USER    (3) Torsional Free Energy           =   +7.16 kcal/mol
DOCKED: USER    (4) Unbound System's Energy  [=(2)] =  -15.50 kcal/mol
DOCKED: USER    
DOCKED: USER    
DOCKED: USER    NEWDPF move IHP_ideal_opt.pdbqt
DOCKED: USER    NEWDPF about 0.035000 0.082000 -0.065000
DOCKED: USER    NEWDPF tran0 -1.803207 -15.163711 4.495578
DOCKED: USER    NEWDPF quaternion0 0.474268 0.738993 0.256569 0.403896
DOCKED: USER    NEWDPF axisangle0 0.518436 0.807815 0.280463 132.356055
DOCKED: USER    NEWDPF quat0 0.518436 0.807815 0.280463 132.356055
DOCKED: USER    NEWDPF dihe0 149.07 146.70 142.76 8.50 123.02 83.43 -61.34 -1.59 6.39 88.69 82.43 -92.68 -16.84 -175.52 178.80 10.38 -65.53 96.13 -31.47 5.04 12.90 -12.34 173.71 13.73 
DOCKED: USER  keepresnum = 1 
DOCKED: USER  
DOCKED: REMARK  24 active torsions:
DOCKED: REMARK  status: ('A' for Active; 'I' for Inactive)
DOCKED: REMARK    1  A    between atoms: C_1  and  O_7 
DOCKED: REMARK    2  A    between atoms: C_2  and  O_12 
DOCKED: REMARK    3  A    between atoms: C_3  and  O_17 
DOCKED: REMARK    4  A    between atoms: C_4  and  O_22 
DOCKED: REMARK    5  A    between atoms: C_5  and  O_27 
DOCKED: REMARK    6  A    between atoms: C_6  and  O_32 
DOCKED: REMARK    7  A    between atoms: O_7  and  P_8 
DOCKED: REMARK    8  A    between atoms: P_8  and  O_10 
DOCKED: REMARK    9  A    between atoms: P_8  and  O_11 
DOCKED: REMARK   10  A    between atoms: O_12  and  P_13 
DOCKED: REMARK   11  A    between atoms: P_13  and  O_15 
DOCKED: REMARK   12  A    between atoms: P_13  and  O_16 
DOCKED: REMARK   13  A    between atoms: O_17  and  P_18 
DOCKED: REMARK   14  A    between atoms: P_18  and  O_20 
DOCKED: REMARK   15  A    between atoms: P_18  and  O_21 
DOCKED: REMARK   16  A    between atoms: O_22  and  P_23 
DOCKED: REMARK   17  A    between atoms: P_23  and  O_25 
DOCKED: REMARK   18  A    between atoms: P_23  and  O_26 
DOCKED: REMARK   19  A    between atoms: O_27  and  P_28 
DOCKED: REMARK   20  A    between atoms: P_28  and  O_30 
DOCKED: REMARK   21  A    between atoms: P_28  and  O_31 
DOCKED: REMARK   22  A    between atoms: O_32  and  P_33 
DOCKED: REMARK   23  A    between atoms: P_33  and  O_35 
DOCKED: REMARK   24  A    between atoms: P_33  and  O_36 
DOCKED: USER                              x       y       z     vdW  Elec       q    Type
DOCKED: USER                           _______ _______ _______ _____ _____    ______ ____
DOCKED: ROOT
DOCKED: ATOM      1  C   UNL d   1      -3.170 -14.314   5.123 -0.04 -0.01    +0.194 C 
DOCKED: ATOM      2  C   UNL d   1      -3.490 -15.548   4.278 -0.00 -0.01    +0.194 C 
DOCKED: ATOM      3  C   UNL d   1      -2.615 -15.618   3.024 -0.01 -0.01    +0.194 C 
DOCKED: ATOM      4  C   UNL d   1      -1.123 -15.496   3.325 -0.03 -0.02    +0.194 C 
DOCKED: ATOM      5  C   UNL d   1      -0.771 -14.345   4.259 -0.10 -0.02    +0.194 C 
DOCKED: ATOM      6  C   UNL d   1      -1.685 -14.238   5.481 -0.08 -0.02    +0.194 C 
DOCKED: ENDROOT
DOCKED: BRANCH   1   7
DOCKED: ATOM      7  O   UNL d   1      -3.899 -14.411   6.349 -0.02 -0.00    -0.278 OA
DOCKED: BRANCH   7   8
DOCKED: ATOM      8  P   UNL d   1      -4.269 -13.063   7.122 -0.09 +0.06    +0.473 P 
DOCKED: ATOM      9  O   UNL d   1      -4.573 -11.898   6.247 -0.19 -0.02    -0.228 OA
DOCKED: BRANCH   8  10
DOCKED: ATOM     10  O   UNL d   1      -5.489 -13.478   8.062 -0.55 -0.22    -0.303 OA
DOCKED: ATOM     11  H   UNL d   1      -5.786 -14.379   7.833 +0.02 +0.07    +0.222 HD
DOCKED: ENDBRANCH   8  10
DOCKED: BRANCH   8  12
DOCKED: ATOM     12  O   UNL d   1      -3.096 -12.854   8.173 -0.14 +0.11    -0.303 OA
DOCKED: ATOM     13  H   UNL d   1      -2.436 -12.184   7.886 -0.19 -0.24    +0.222 HD
DOCKED: ENDBRANCH   8  12
DOCKED: ENDBRANCH   7   8
DOCKED: ENDBRANCH   1   7
DOCKED: BRANCH   2  14
DOCKED: ATOM     14  O   UNL d   1      -3.260 -16.724   5.063 +0.00 +0.01    -0.278 OA
DOCKED: BRANCH  14  15
DOCKED: ATOM     15  P   UNL d   1      -4.365 -17.879   4.963 +0.00 -0.01    +0.473 P 
DOCKED: ATOM     16  O   UNL d   1      -5.054 -18.260   6.236 +0.00 +0.00    -0.228 OA
DOCKED: BRANCH  15  17
DOCKED: ATOM     17  O   UNL d   1      -5.374 -17.355   3.848 +0.00 +0.01    -0.303 OA
DOCKED: ATOM     18  H   UNL d   1      -4.892 -17.031   3.062 +0.00 -0.01    +0.222 HD
DOCKED: ENDBRANCH  15  17
DOCKED: BRANCH  15  19
DOCKED: ATOM     19  O   UNL d   1      -3.631 -19.065   4.199 +0.00 +0.01    -0.303 OA
DOCKED: ATOM     20  H   UNL d   1      -3.213 -18.758   3.373 +0.00 -0.01    +0.222 HD
DOCKED: ENDBRANCH  15  19
DOCKED: ENDBRANCH  14  15
DOCKED: ENDBRANCH   2  14
DOCKED: BRANCH   6  21
DOCKED: ATOM     21  O   UNL d   1      -1.458 -12.951   6.053 -0.20 +0.05    -0.278 OA
DOCKED: BRANCH  21  22
DOCKED: ATOM     22  P   UNL d   1      -0.322 -12.765   7.158 -0.27 -0.11    +0.473 P 
DOCKED: ATOM     23  O   UNL d   1      -0.501 -11.694   8.179 -0.89 +0.14    -0.228 OA
DOCKED: BRANCH  22  24
DOCKED: ATOM     24  O   UNL d   1      -0.199 -14.238   7.749 -0.08 +0.05    -0.303 OA
DOCKED: ATOM     25  H   UNL d   1       0.010 -14.854   7.002 +0.07 -0.03    +0.222 HD
DOCKED: ENDBRANCH  22  24
DOCKED: BRANCH  22  26
DOCKED: ATOM     26  O   UNL d   1       0.997 -12.661   6.253 -0.64 -0.03    -0.303 OA
DOCKED: ATOM     27  H   UNL d   1       1.373 -13.556   6.127 +0.01 -0.04    +0.222 HD
DOCKED: ENDBRANCH  22  26
DOCKED: ENDBRANCH  21  22
DOCKED: ENDBRANCH   6  21
DOCKED: BRANCH   3  28
DOCKED: ATOM     28  O   UNL d   1      -2.781 -16.912   2.459 -0.00 +0.02    -0.278 OA
DOCKED: BRANCH  28  29
DOCKED: ATOM     29  P   UNL d   1      -3.786 -17.136   1.243 +0.00 -0.03    +0.473 P 
DOCKED: ATOM     30  O   UNL d   1      -4.758 -16.038   1.005 -0.00 +0.02    -0.228 OA
DOCKED: BRANCH  29  31
DOCKED: ATOM     31  O   UNL d   1      -2.741 -17.448   0.071 +0.00 +0.02    -0.303 OA
DOCKED: ATOM     32  H   UNL d   1      -1.833 -17.256   0.401 +0.01 -0.02    +0.222 HD
DOCKED: ENDBRANCH  29  31
DOCKED: BRANCH  29  33
DOCKED: ATOM     33  O   UNL d   1      -4.388 -18.573   1.568 +0.00 +0.02    -0.303 OA
DOCKED: ATOM     34  H   UNL d   1      -4.806 -18.552   2.464 +0.00 -0.01    +0.222 HD
DOCKED: ENDBRANCH  29  33
DOCKED: ENDBRANCH  28  29
DOCKED: ENDBRANCH   3  28
DOCKED: BRANCH   5  35
DOCKED: ATOM     35  O   UNL d   1       0.542 -14.626   4.740 -0.11 +0.05    -0.278 OA
DOCKED: BRANCH  35  36
DOCKED: ATOM     36  P   UNL d   1       0.854 -16.012   5.467 -0.01 -0.06    +0.473 P 
DOCKED: ATOM     37  O   UNL d   1      -0.333 -16.724   6.033 -0.01 +0.02    -0.228 OA
DOCKED: BRANCH  36  38
DOCKED: ATOM     38  O   UNL d   1       1.615 -16.816   4.323 -0.03 +0.05    -0.303 OA
DOCKED: ATOM     39  H   UNL d   1       1.003 -16.961   3.570 +0.04 -0.03    +0.222 HD
DOCKED: ENDBRANCH  36  38
DOCKED: BRANCH  36  40
DOCKED: ATOM     40  O   UNL d   1       2.007 -15.609   6.485 -0.06 +0.05    -0.303 OA
DOCKED: ATOM     41  H   UNL d   1       1.787 -14.789   6.980 +0.07 -0.03    +0.222 HD
DOCKED: ENDBRANCH  36  40
DOCKED: ENDBRANCH  35  36
DOCKED: ENDBRANCH   5  35
DOCKED: BRANCH   4  42
DOCKED: ATOM     42  O   UNL d   1      -0.469 -15.241   2.077 -0.03 +0.03    -0.278 OA
DOCKED: BRANCH  42  43
DOCKED: ATOM     43  P   UNL d   1       0.194 -16.460   1.291 -0.01 -0.05    +0.473 P 
DOCKED: ATOM     44  O   UNL d   1       0.081 -16.462  -0.194 -0.03 +0.02    -0.228 OA
DOCKED: BRANCH  43  45
DOCKED: ATOM     45  O   UNL d   1       1.691 -16.451   1.830 -0.10 +0.05    -0.303 OA
DOCKED: ATOM     46  H   UNL d   1       1.797 -15.836   2.583 +0.07 -0.05    +0.222 HD
DOCKED: ENDBRANCH  43  45
DOCKED: BRANCH  43  47
DOCKED: ATOM     47  O   UNL d   1      -0.411 -17.747   2.032 -0.00 +0.02    -0.303 OA
DOCKED: ATOM     48  H   UNL d   1      -1.274 -17.975   1.629 +0.01 -0.01    +0.222 HD
DOCKED: ENDBRANCH  43  47
DOCKED: ENDBRANCH  42  43
DOCKED: ENDBRANCH   4  42
DOCKED: TORSDOF 24
DOCKED: TER
DOCKED: ENDMDL
________________________________________________________________________________


	BEGINNING GENETIC ALGORITHM DOCKING 52 of 100
Run: 52 Seed: 225635524 1463314440 [ Run 52 of 100 GA/GALS ]
Beginning LAMARCKIAN GENETIC ALGORITHM (LGA), with a maximum of 25000000 energy evaluations.

Final-Value: -20.587


	FINAL GENETIC ALGORITHM DOCKED STATE
	_______________________________________________


Detailed state:  trans -14.327 6.126 7.692 quatxyzw 0.029712 -0.105843 0.690448 0.714980 center 0.035 0.082 -0.065 ntor 24 79.1189 99.5635 127.5537 9.0369 110.6827 87.3560 0.2564 -53.5933 -45.9466 18.1977 157.0968 122.3831 -74.0091 36.2921 -178.5191 -73.0526 173.3620 -167.6337 -141.0018 -26.5161 15.5637 -10.3451 -179.3775 18.4409
State:	-14.327   6.126   7.692   0.042 -0.151  0.988 88.717     79.12   99.56  127.55    9.04  110.68   87.36    0.26  -53.59  -45.95   18.20  157.10  122.38  -74.01   36.29 -178.52  -73.05  173.36 -167.63 -141.00  -26.52   15.56  -10.35 -179.38   18.44

DOCKED: MODEL       52
DOCKED: USER    Run = 52
DOCKED: USER    DPF = D:/Protein_go_brrr/autodock/final/mut_D99N/IHP/dock.dpf
DOCKED: USER  
DOCKED: USER    Estimated Free Energy of Binding    =   +2.92 kcal/mol  [=(1)+(2)+(3)-(4)]
DOCKED: USER    
DOCKED: USER    (1) Final Intermolecular Energy     =   -4.24 kcal/mol
DOCKED: USER        vdW + Hbond + desolv Energy     =   -4.31 kcal/mol
DOCKED: USER        Electrostatic Energy            =   +0.07 kcal/mol
DOCKED: USER    (2) Final Total Internal Energy     =  -16.35 kcal/mol
DOCKED: USER    (3) Torsional Free Energy           =   +7.16 kcal/mol
DOCKED: USER    (4) Unbound System's Energy  [=(2)] =  -16.35 kcal/mol
DOCKED: USER    
DOCKED: USER    
DOCKED: USER    NEWDPF move IHP_ideal_opt.pdbqt
DOCKED: USER    NEWDPF about 0.035000 0.082000 -0.065000
DOCKED: USER    NEWDPF tran0 -14.327048 6.126169 7.692291
DOCKED: USER    NEWDPF quaternion0 0.029712 -0.105843 0.690448 0.714980
DOCKED: USER    NEWDPF axisangle0 0.042498 -0.151390 0.987560 88.716925
DOCKED: USER    NEWDPF quat0 0.042498 -0.151390 0.987560 88.716925
DOCKED: USER    NEWDPF dihe0 79.12 99.56 127.55 9.04 110.68 87.36 0.26 -53.59 -45.95 18.20 157.10 122.38 -74.01 36.29 -178.52 -73.05 173.36 -167.63 -141.00 -26.52 15.56 -10.35 -179.38 18.44 
DOCKED: USER  keepresnum = 1 
DOCKED: USER  
DOCKED: REMARK  24 active torsions:
DOCKED: REMARK  status: ('A' for Active; 'I' for Inactive)
DOCKED: REMARK    1  A    between atoms: C_1  and  O_7 
DOCKED: REMARK    2  A    between atoms: C_2  and  O_12 
DOCKED: REMARK    3  A    between atoms: C_3  and  O_17 
DOCKED: REMARK    4  A    between atoms: C_4  and  O_22 
DOCKED: REMARK    5  A    between atoms: C_5  and  O_27 
DOCKED: REMARK    6  A    between atoms: C_6  and  O_32 
DOCKED: REMARK    7  A    between atoms: O_7  and  P_8 
DOCKED: REMARK    8  A    between atoms: P_8  and  O_10 
DOCKED: REMARK    9  A    between atoms: P_8  and  O_11 
DOCKED: REMARK   10  A    between atoms: O_12  and  P_13 
DOCKED: REMARK   11  A    between atoms: P_13  and  O_15 
DOCKED: REMARK   12  A    between atoms: P_13  and  O_16 
DOCKED: REMARK   13  A    between atoms: O_17  and  P_18 
DOCKED: REMARK   14  A    between atoms: P_18  and  O_20 
DOCKED: REMARK   15  A    between atoms: P_18  and  O_21 
DOCKED: REMARK   16  A    between atoms: O_22  and  P_23 
DOCKED: REMARK   17  A    between atoms: P_23  and  O_25 
DOCKED: REMARK   18  A    between atoms: P_23  and  O_26 
DOCKED: REMARK   19  A    between atoms: O_27  and  P_28 
DOCKED: REMARK   20  A    between atoms: P_28  and  O_30 
DOCKED: REMARK   21  A    between atoms: P_28  and  O_31 
DOCKED: REMARK   22  A    between atoms: O_32  and  P_33 
DOCKED: REMARK   23  A    between atoms: P_33  and  O_35 
DOCKED: REMARK   24  A    between atoms: P_33  and  O_36 
DOCKED: USER                              x       y       z     vdW  Elec       q    Type
DOCKED: USER                           _______ _______ _______ _____ _____    ______ ____
DOCKED: ROOT
DOCKED: ATOM      1  C   UNL d   1     -15.016   4.759   8.493 -0.06 +0.06    +0.194 C 
DOCKED: ATOM      2  C   UNL d   1     -15.906   6.002   8.423 -0.07 +0.03    +0.194 C 
DOCKED: ATOM      3  C   UNL d   1     -15.120   7.279   8.727 -0.06 +0.03    +0.194 C 
DOCKED: ATOM      4  C   UNL d   1     -13.857   7.425   7.882 -0.22 +0.00    +0.194 C 
DOCKED: ATOM      5  C   UNL d   1     -12.997   6.169   7.831 -0.21 +0.01    +0.194 C 
DOCKED: ATOM      6  C   UNL d   1     -13.790   4.884   7.588 -0.13 +0.03    +0.194 C 
DOCKED: ENDROOT
DOCKED: BRANCH   1   7
DOCKED: ATOM      7  O   UNL d   1     -15.775   3.640   8.031 -0.02 -0.06    -0.278 OA
DOCKED: BRANCH   7   8
DOCKED: ATOM      8  P   UNL d   1     -15.615   3.191   6.506 +0.01 +0.09    +0.473 P 
DOCKED: ATOM      9  O   UNL d   1     -15.115   4.249   5.587 -0.05 -0.03    -0.228 OA
DOCKED: BRANCH   8  10
DOCKED: ATOM     10  O   UNL d   1     -14.659   1.916   6.577 -0.01 -0.09    -0.303 OA
DOCKED: ATOM     11  H   UNL d   1     -13.734   2.207   6.688 +0.05 +0.07    +0.222 HD
DOCKED: ENDBRANCH   8  10
DOCKED: BRANCH   8  12
DOCKED: ATOM     12  O   UNL d   1     -17.011   2.539   6.119 -0.00 -0.06    -0.303 OA
DOCKED: ATOM     13  H   UNL d   1     -17.776   3.133   6.292 +0.01 +0.03    +0.222 HD
DOCKED: ENDBRANCH   8  12
DOCKED: ENDBRANCH   7   8
DOCKED: ENDBRANCH   1   7
DOCKED: BRANCH   2  14
DOCKED: ATOM     14  O   UNL d   1     -16.456   6.108   7.104 -0.02 -0.02    -0.278 OA
DOCKED: BRANCH  14  15
DOCKED: ATOM     15  P   UNL d   1     -17.999   5.713   6.938 +0.00 +0.04    +0.473 P 
DOCKED: ATOM     16  O   UNL d   1     -18.994   6.822   7.075 -0.00 -0.01    -0.228 OA
DOCKED: BRANCH  15  17
DOCKED: ATOM     17  O   UNL d   1     -18.065   4.997   5.517 -0.01 -0.03    -0.303 OA
DOCKED: ATOM     18  H   UNL d   1     -17.233   4.525   5.322 +0.03 +0.03    +0.222 HD
DOCKED: ENDBRANCH  15  17
DOCKED: BRANCH  15  19
DOCKED: ATOM     19  O   UNL d   1     -18.202   4.483   7.926 -0.00 -0.04    -0.303 OA
DOCKED: ATOM     20  H   UNL d   1     -17.527   3.793   7.786 +0.01 +0.03    +0.222 HD
DOCKED: ENDBRANCH  15  19
DOCKED: ENDBRANCH  14  15
DOCKED: ENDBRANCH   2  14
DOCKED: BRANCH   6  21
DOCKED: ATOM     21  O   UNL d   1     -12.923   3.798   7.906 -0.15 -0.06    -0.278 OA
DOCKED: BRANCH  21  22
DOCKED: ATOM     22  P   UNL d   1     -11.939   3.217   6.792 -0.15 +0.08    +0.473 P 
DOCKED: ATOM     23  O   UNL d   1     -11.602   1.765   6.837 -0.22 -0.07    -0.228 OA
DOCKED: BRANCH  22  24
DOCKED: ATOM     24  O   UNL d   1     -12.648   3.697   5.450 -0.09 -0.05    -0.303 OA
DOCKED: ATOM     25  H   UNL d   1     -12.921   4.642   5.567 +0.09 +0.02    +0.222 HD
DOCKED: ENDBRANCH  22  24
DOCKED: BRANCH  22  26
DOCKED: ATOM     26  O   UNL d   1     -10.700   4.230   6.892 -0.31 -0.01    -0.303 OA
DOCKED: ATOM     27  H   UNL d   1     -10.871   5.005   6.319 +0.10 -0.01    +0.222 HD
DOCKED: ENDBRANCH  22  26
DOCKED: ENDBRANCH  21  22
DOCKED: ENDBRANCH   6  21
DOCKED: BRANCH   3  28
DOCKED: ATOM     28  O   UNL d   1     -15.943   8.383   8.370 -0.05 -0.00    -0.278 OA
DOCKED: BRANCH  28  29
DOCKED: ATOM     29  P   UNL d   1     -16.748   9.181   9.489 -0.02 -0.02    +0.473 P 
DOCKED: ATOM     30  O   UNL d   1     -18.179   8.812   9.635 -0.01 -0.00    -0.228 OA
DOCKED: BRANCH  29  31
DOCKED: ATOM     31  O   UNL d   1     -15.799   8.925  10.752 -0.11 -0.03    -0.303 OA
DOCKED: ATOM     32  H   UNL d   1     -14.878   9.173  10.508 +0.06 +0.01    +0.222 HD
DOCKED: ENDBRANCH  29  31
DOCKED: BRANCH  29  33
DOCKED: ATOM     33  O   UNL d   1     -16.430  10.695   9.113 -0.04 +0.07    -0.303 OA
DOCKED: ATOM     34  H   UNL d   1     -15.917  10.715   8.268 +0.05 -0.07    +0.222 HD
DOCKED: ENDBRANCH  29  33
DOCKED: ENDBRANCH  28  29
DOCKED: ENDBRANCH   3  28
DOCKED: BRANCH   5  35
DOCKED: ATOM     35  O   UNL d   1     -12.125   6.343   6.716 -0.19 +0.05    -0.278 OA
DOCKED: BRANCH  35  36
DOCKED: ATOM     36  P   UNL d   1     -12.709   6.795   5.301 -0.04 -0.06    +0.473 P 
DOCKED: ATOM     37  O   UNL d   1     -12.070   6.159   4.107 -0.25 +0.01    -0.228 OA
DOCKED: BRANCH  36  38
DOCKED: ATOM     38  O   UNL d   1     -14.258   6.466   5.468 -0.08 -0.00    -0.303 OA
DOCKED: ATOM     39  H   UNL d   1     -14.509   5.768   4.825 +0.06 +0.01    +0.222 HD
DOCKED: ENDBRANCH  36  38
DOCKED: BRANCH  36  40
DOCKED: ATOM     40  O   UNL d   1     -12.641   8.381   5.397 -0.13 +0.08    -0.303 OA
DOCKED: ATOM     41  H   UNL d   1     -12.640   8.689   6.331 -0.03 -0.07    +0.222 HD
DOCKED: ENDBRANCH  36  40
DOCKED: ENDBRANCH  35  36
DOCKED: ENDBRANCH   5  35
DOCKED: BRANCH   4  42
DOCKED: ATOM     42  O   UNL d   1     -13.068   8.452   8.490 -0.70 -0.00    -0.278 OA
DOCKED: BRANCH  42  43
DOCKED: ATOM     43  P   UNL d   1     -13.235   9.956   7.984 -0.29 -0.11    +0.473 P 
DOCKED: ATOM     44  O   UNL d   1     -12.021  10.645   7.464 -0.90 +0.07    -0.228 OA
DOCKED: BRANCH  43  45
DOCKED: ATOM     45  O   UNL d   1     -14.419   9.838   6.927 -0.08 +0.06    -0.303 OA
DOCKED: ATOM     46  H   UNL d   1     -15.294   9.873   7.364 +0.06 -0.04    +0.222 HD
DOCKED: ENDBRANCH  43  45
DOCKED: BRANCH  43  47
DOCKED: ATOM     47  O   UNL d   1     -13.967  10.677   9.214 -0.19 +0.14    -0.303 OA
DOCKED: ATOM     48  H   UNL d   1     -14.817  10.225   9.394 +0.06 -0.06    +0.222 HD
DOCKED: ENDBRANCH  43  47
DOCKED: ENDBRANCH  42  43
DOCKED: ENDBRANCH   4  42
DOCKED: TORSDOF 24
DOCKED: TER
DOCKED: ENDMDL
________________________________________________________________________________


	BEGINNING GENETIC ALGORITHM DOCKING 53 of 100
Run: 53 Seed: 1008497914 2033039935 [ Run 53 of 100 GA/GALS ]
Beginning LAMARCKIAN GENETIC ALGORITHM (LGA), with a maximum of 25000000 energy evaluations.

Final-Value: -17.115


	FINAL GENETIC ALGORITHM DOCKED STATE
	_______________________________________________


Detailed state:  trans -11.405 16.190 -15.130 quatxyzw 0.125971 0.231654 -0.962371 -0.065652 center 0.035 0.082 -0.065 ntor 24 102.3493 114.8402 46.0403 75.9219 -74.2197 2.7224 -123.9977 -2.0908 51.3357 -8.0146 82.7123 -98.8615 -75.6294 -61.3527 -78.7037 17.3022 -142.7214 107.5234 -149.1551 -4.0541 57.2124 -17.7908 -53.0823 163.3118
State:	-11.405  16.190 -15.130   0.126  0.232 -0.964 -172.471    102.35  114.84   46.04   75.92  -74.22    2.72 -124.00   -2.09   51.34   -8.01   82.71  -98.86  -75.63  -61.35  -78.70   17.30 -142.72  107.52 -149.16   -4.05   57.21  -17.79  -53.08  163.31

DOCKED: MODEL       53
DOCKED: USER    Run = 53
DOCKED: USER    DPF = D:/Protein_go_brrr/autodock/final/mut_D99N/IHP/dock.dpf
DOCKED: USER  
DOCKED: USER    Estimated Free Energy of Binding    =   +2.76 kcal/mol  [=(1)+(2)+(3)-(4)]
DOCKED: USER    
DOCKED: USER    (1) Final Intermolecular Energy     =   -4.40 kcal/mol
DOCKED: USER        vdW + Hbond + desolv Energy     =   -3.86 kcal/mol
DOCKED: USER        Electrostatic Energy            =   -0.55 kcal/mol
DOCKED: USER    (2) Final Total Internal Energy     =  -12.71 kcal/mol
DOCKED: USER    (3) Torsional Free Energy           =   +7.16 kcal/mol
DOCKED: USER    (4) Unbound System's Energy  [=(2)] =  -12.71 kcal/mol
DOCKED: USER    
DOCKED: USER    
DOCKED: USER    NEWDPF move IHP_ideal_opt.pdbqt
DOCKED: USER    NEWDPF about 0.035000 0.082000 -0.065000
DOCKED: USER    NEWDPF tran0 -11.405035 16.190243 -15.130210
DOCKED: USER    NEWDPF quaternion0 0.125971 0.231654 -0.962371 -0.065652
DOCKED: USER    NEWDPF axisangle0 0.126244 0.232154 -0.964452 -172.471396
DOCKED: USER    NEWDPF quat0 0.126244 0.232154 -0.964452 -172.471396
DOCKED: USER    NEWDPF dihe0 102.35 114.84 46.04 75.92 -74.22 2.72 -124.00 -2.09 51.34 -8.01 82.71 -98.86 -75.63 -61.35 -78.70 17.30 -142.72 107.52 -149.16 -4.05 57.21 -17.79 -53.08 163.31 
DOCKED: USER  keepresnum = 1 
DOCKED: USER  
DOCKED: REMARK  24 active torsions:
DOCKED: REMARK  status: ('A' for Active; 'I' for Inactive)
DOCKED: REMARK    1  A    between atoms: C_1  and  O_7 
DOCKED: REMARK    2  A    between atoms: C_2  and  O_12 
DOCKED: REMARK    3  A    between atoms: C_3  and  O_17 
DOCKED: REMARK    4  A    between atoms: C_4  and  O_22 
DOCKED: REMARK    5  A    between atoms: C_5  and  O_27 
DOCKED: REMARK    6  A    between atoms: C_6  and  O_32 
DOCKED: REMARK    7  A    between atoms: O_7  and  P_8 
DOCKED: REMARK    8  A    between atoms: P_8  and  O_10 
DOCKED: REMARK    9  A    between atoms: P_8  and  O_11 
DOCKED: REMARK   10  A    between atoms: O_12  and  P_13 
DOCKED: REMARK   11  A    between atoms: P_13  and  O_15 
DOCKED: REMARK   12  A    between atoms: P_13  and  O_16 
DOCKED: REMARK   13  A    between atoms: O_17  and  P_18 
DOCKED: REMARK   14  A    between atoms: P_18  and  O_20 
DOCKED: REMARK   15  A    between atoms: P_18  and  O_21 
DOCKED: REMARK   16  A    between atoms: O_22  and  P_23 
DOCKED: REMARK   17  A    between atoms: P_23  and  O_25 
DOCKED: REMARK   18  A    between atoms: P_23  and  O_26 
DOCKED: REMARK   19  A    between atoms: O_27  and  P_28 
DOCKED: REMARK   20  A    between atoms: P_28  and  O_30 
DOCKED: REMARK   21  A    between atoms: P_28  and  O_31 
DOCKED: REMARK   22  A    between atoms: O_32  and  P_33 
DOCKED: REMARK   23  A    between atoms: P_33  and  O_35 
DOCKED: REMARK   24  A    between atoms: P_33  and  O_36 
DOCKED: USER                              x       y       z     vdW  Elec       q    Type
DOCKED: USER                           _______ _______ _______ _____ _____    ______ ____
DOCKED: ROOT
DOCKED: ATOM      1  C   UNL d   1     -12.939  16.524 -14.410 -0.00 -0.03    +0.194 C 
DOCKED: ATOM      2  C   UNL d   1     -11.812  17.491 -14.042 +0.00 -0.02    +0.194 C 
DOCKED: ATOM      3  C   UNL d   1     -10.504  16.751 -13.750 -0.01 -0.02    +0.194 C 
DOCKED: ATOM      4  C   UNL d   1     -10.098  15.786 -14.861 -0.03 -0.03    +0.194 C 
DOCKED: ATOM      5  C   UNL d   1     -11.226  14.881 -15.340 -0.07 -0.06    +0.194 C 
DOCKED: ATOM      6  C   UNL d   1     -12.550  15.610 -15.573 -0.01 -0.05    +0.194 C 
DOCKED: ENDROOT
DOCKED: BRANCH   1   7
DOCKED: ATOM      7  O   UNL d   1     -14.067  17.295 -14.832 +0.00 +0.03    -0.278 OA
DOCKED: BRANCH   7   8
DOCKED: ATOM      8  P   UNL d   1     -14.176  17.697 -16.375 +0.00 -0.05    +0.473 P 
DOCKED: ATOM      9  O   UNL d   1     -12.883  17.732 -17.111 +0.00 +0.02    -0.228 OA
DOCKED: BRANCH   8  10
DOCKED: ATOM     10  O   UNL d   1     -15.214  16.646 -16.976 +0.00 +0.04    -0.303 OA
DOCKED: ATOM     11  H   UNL d   1     -14.904  15.739 -16.794 +0.01 -0.04    +0.222 HD
DOCKED: ENDBRANCH   8  10
DOCKED: BRANCH   8  12
DOCKED: ATOM     12  O   UNL d   1     -15.020  19.044 -16.391 +0.00 +0.02    -0.303 OA
DOCKED: ATOM     13  H   UNL d   1     -14.531  19.810 -16.014 +0.00 -0.01    +0.222 HD
DOCKED: ENDBRANCH   8  12
DOCKED: ENDBRANCH   7   8
DOCKED: ENDBRANCH   1   7
DOCKED: BRANCH   2  14
DOCKED: ATOM     14  O   UNL d   1     -11.593  18.391 -15.135 +0.00 +0.02    -0.278 OA
DOCKED: BRANCH  14  15
DOCKED: ATOM     15  P   UNL d   1     -11.610  19.954 -14.789 +0.00 -0.02    +0.473 P 
DOCKED: ATOM     16  O   UNL d   1     -11.986  20.329 -13.390 +0.00 +0.01    -0.228 OA
DOCKED: BRANCH  15  17
DOCKED: ATOM     17  O   UNL d   1     -10.153  20.456 -15.193 +0.00 +0.01    -0.303 OA
DOCKED: ATOM     18  H   UNL d   1      -9.464  19.882 -14.808 +0.00 -0.01    +0.222 HD
DOCKED: ENDBRANCH  15  17
DOCKED: BRANCH  15  19
DOCKED: ATOM     19  O   UNL d   1     -12.501  20.604 -15.936 +0.00 +0.01    -0.303 OA
DOCKED: ATOM     20  H   UNL d   1     -13.025  19.933 -16.410 +0.00 -0.01    +0.222 HD
DOCKED: ENDBRANCH  15  19
DOCKED: ENDBRANCH  14  15
DOCKED: ENDBRANCH   2  14
DOCKED: BRANCH   6  21
DOCKED: ATOM     21  O   UNL d   1     -13.560  14.609 -15.674 -0.02 +0.10    -0.278 OA
DOCKED: BRANCH  21  22
DOCKED: ATOM     22  P   UNL d   1     -13.302  13.312 -16.566 -0.04 -0.38    +0.473 P 
DOCKED: ATOM     23  O   UNL d   1     -12.778  13.501 -17.949 -0.07 +0.16    -0.228 OA
DOCKED: BRANCH  22  24
DOCKED: ATOM     24  O   UNL d   1     -12.372  12.441 -15.612 -0.15 +0.36    -0.303 OA
DOCKED: ATOM     25  H   UNL d   1     -11.674  12.013 -16.170 -0.40 -0.37    +0.222 HD
DOCKED: ENDBRANCH  22  24
DOCKED: BRANCH  22  26
DOCKED: ATOM     26  O   UNL d   1     -14.707  12.549 -16.444 -0.07 +0.24    -0.303 OA
DOCKED: ATOM     27  H   UNL d   1     -14.626  11.659 -16.844 -0.11 -0.29    +0.222 HD
DOCKED: ENDBRANCH  22  26
DOCKED: ENDBRANCH  21  22
DOCKED: ENDBRANCH   6  21
DOCKED: BRANCH   3  28
DOCKED: ATOM     28  O   UNL d   1      -9.467  17.721 -13.694 -0.00 +0.02    -0.278 OA
DOCKED: BRANCH  28  29
DOCKED: ATOM     29  P   UNL d   1      -9.049  18.374 -12.303 +0.00 -0.02    +0.473 P 
DOCKED: ATOM     30  O   UNL d   1      -9.933  18.052 -11.153 -0.00 +0.01    -0.228 OA
DOCKED: BRANCH  29  31
DOCKED: ATOM     31  O   UNL d   1      -7.529  17.882 -12.209 +0.00 +0.01    -0.303 OA
DOCKED: ATOM     32  H   UNL d   1      -7.523  16.916 -12.015 +0.01 -0.01    +0.222 HD
DOCKED: ENDBRANCH  29  31
DOCKED: BRANCH  29  33
DOCKED: ATOM     33  O   UNL d   1      -8.898  19.911 -12.687 +0.00 +0.01    -0.303 OA
DOCKED: ATOM     34  H   UNL d   1      -9.749  20.231 -13.073 +0.00 -0.01    +0.222 HD
DOCKED: ENDBRANCH  29  33
DOCKED: ENDBRANCH  28  29
DOCKED: ENDBRANCH   3  28
DOCKED: BRANCH   5  35
DOCKED: ATOM     35  O   UNL d   1     -10.801  14.368 -16.601 -0.07 +0.10    -0.278 OA
DOCKED: BRANCH  35  36
DOCKED: ATOM     36  P   UNL d   1      -9.731  13.188 -16.671 -0.08 -0.17    +0.473 P 
DOCKED: ATOM     37  O   UNL d   1      -8.319  13.612 -16.928 -0.33 +0.03    -0.228 OA
DOCKED: BRANCH  36  38
DOCKED: ATOM     38  O   UNL d   1      -9.952  12.463 -15.271 -0.43 +0.15    -0.303 OA
DOCKED: ATOM     39  H   UNL d   1     -10.420  13.075 -14.663 -0.37 -0.15    +0.222 HD
DOCKED: ENDBRANCH  36  38
DOCKED: BRANCH  36  40
DOCKED: ATOM     40  O   UNL d   1     -10.389  12.194 -17.725 -0.17 +0.26    -0.303 OA
DOCKED: ATOM     41  H   UNL d   1     -11.329  12.004 -17.508 -0.55 -0.41    +0.222 HD
DOCKED: ENDBRANCH  36  40
DOCKED: ENDBRANCH  35  36
DOCKED: ENDBRANCH   5  35
DOCKED: BRANCH   4  42
DOCKED: ATOM     42  O   UNL d   1      -9.077  14.940 -14.323 -0.06 +0.05    -0.278 OA
DOCKED: BRANCH  42  43
DOCKED: ATOM     43  P   UNL d   1      -9.351  14.181 -12.946 -0.08 -0.13    +0.473 P 
DOCKED: ATOM     44  O   UNL d   1      -8.621  12.905 -12.708 -0.24 +0.08    -0.228 OA
DOCKED: BRANCH  43  45
DOCKED: ATOM     45  O   UNL d   1      -9.061  15.309 -11.862 -0.03 +0.04    -0.303 OA
DOCKED: ATOM     46  H   UNL d   1      -8.947  16.186 -12.280 +0.02 -0.02    +0.222 HD
DOCKED: ENDBRANCH  43  45
DOCKED: BRANCH  43  47
DOCKED: ATOM     47  O   UNL d   1     -10.950  14.083 -12.894 -0.08 +0.12    -0.303 OA
DOCKED: ATOM     48  H   UNL d   1     -11.247  13.338 -13.457 -0.44 -0.16    +0.222 HD
DOCKED: ENDBRANCH  43  47
DOCKED: ENDBRANCH  42  43
DOCKED: ENDBRANCH   4  42
DOCKED: TORSDOF 24
DOCKED: TER
DOCKED: ENDMDL
________________________________________________________________________________


	BEGINNING GENETIC ALGORITHM DOCKING 54 of 100
Run: 54 Seed: 206833313 314609615 [ Run 54 of 100 GA/GALS ]
Beginning LAMARCKIAN GENETIC ALGORITHM (LGA), with a maximum of 25000000 energy evaluations.

Final-Value: -17.456


	FINAL GENETIC ALGORITHM DOCKED STATE
	_______________________________________________


Detailed state:  trans -14.616 -5.991 -0.813 quatxyzw -0.350491 0.315061 -0.507500 -0.721344 center 0.035 0.082 -0.065 ntor 24 -179.9811 158.1873 158.5210 -16.2407 -180.0000 -148.2791 -39.6111 -96.9410 -25.6544 27.4109 19.8912 166.1548 -104.2055 176.7353 10.7431 -46.4624 -178.2497 162.8301 53.7570 12.2188 156.4696 7.5750 -35.2954 -10.2523
State:	-14.616  -5.991  -0.813  -0.506  0.455 -0.733 -87.669   -179.98  158.19  158.52  -16.24 -180.00 -148.28  -39.61  -96.94  -25.65   27.41   19.89  166.15 -104.21  176.74   10.74  -46.46 -178.25  162.83   53.76   12.22  156.47    7.57  -35.30  -10.25

DOCKED: MODEL       54
DOCKED: USER    Run = 54
DOCKED: USER    DPF = D:/Protein_go_brrr/autodock/final/mut_D99N/IHP/dock.dpf
DOCKED: USER  
DOCKED: USER    Estimated Free Energy of Binding    =   +3.92 kcal/mol  [=(1)+(2)+(3)-(4)]
DOCKED: USER    
DOCKED: USER    (1) Final Intermolecular Energy     =   -3.24 kcal/mol
DOCKED: USER        vdW + Hbond + desolv Energy     =   -3.02 kcal/mol
DOCKED: USER        Electrostatic Energy            =   -0.22 kcal/mol
DOCKED: USER    (2) Final Total Internal Energy     =  -14.22 kcal/mol
DOCKED: USER    (3) Torsional Free Energy           =   +7.16 kcal/mol
DOCKED: USER    (4) Unbound System's Energy  [=(2)] =  -14.22 kcal/mol
DOCKED: USER    
DOCKED: USER    
DOCKED: USER    NEWDPF move IHP_ideal_opt.pdbqt
DOCKED: USER    NEWDPF about 0.035000 0.082000 -0.065000
DOCKED: USER    NEWDPF tran0 -14.616232 -5.990570 -0.812800
DOCKED: USER    NEWDPF quaternion0 -0.350491 0.315061 -0.507500 -0.721344
DOCKED: USER    NEWDPF axisangle0 -0.506068 0.454910 -0.732770 -87.668963
DOCKED: USER    NEWDPF quat0 -0.506068 0.454910 -0.732770 -87.668963
DOCKED: USER    NEWDPF dihe0 -179.98 158.19 158.52 -16.24 -180.00 -148.28 -39.61 -96.94 -25.65 27.41 19.89 166.15 -104.21 176.74 10.74 -46.46 -178.25 162.83 53.76 12.22 156.47 7.57 -35.30 -10.25 
DOCKED: USER  keepresnum = 1 
DOCKED: USER  
DOCKED: REMARK  24 active torsions:
DOCKED: REMARK  status: ('A' for Active; 'I' for Inactive)
DOCKED: REMARK    1  A    between atoms: C_1  and  O_7 
DOCKED: REMARK    2  A    between atoms: C_2  and  O_12 
DOCKED: REMARK    3  A    between atoms: C_3  and  O_17 
DOCKED: REMARK    4  A    between atoms: C_4  and  O_22 
DOCKED: REMARK    5  A    between atoms: C_5  and  O_27 
DOCKED: REMARK    6  A    between atoms: C_6  and  O_32 
DOCKED: REMARK    7  A    between atoms: O_7  and  P_8 
DOCKED: REMARK    8  A    between atoms: P_8  and  O_10 
DOCKED: REMARK    9  A    between atoms: P_8  and  O_11 
DOCKED: REMARK   10  A    between atoms: O_12  and  P_13 
DOCKED: REMARK   11  A    between atoms: P_13  and  O_15 
DOCKED: REMARK   12  A    between atoms: P_13  and  O_16 
DOCKED: REMARK   13  A    between atoms: O_17  and  P_18 
DOCKED: REMARK   14  A    between atoms: P_18  and  O_20 
DOCKED: REMARK   15  A    between atoms: P_18  and  O_21 
DOCKED: REMARK   16  A    between atoms: O_22  and  P_23 
DOCKED: REMARK   17  A    between atoms: P_23  and  O_25 
DOCKED: REMARK   18  A    between atoms: P_23  and  O_26 
DOCKED: REMARK   19  A    between atoms: O_27  and  P_28 
DOCKED: REMARK   20  A    between atoms: P_28  and  O_30 
DOCKED: REMARK   21  A    between atoms: P_28  and  O_31 
DOCKED: REMARK   22  A    between atoms: O_32  and  P_33 
DOCKED: REMARK   23  A    between atoms: P_33  and  O_35 
DOCKED: REMARK   24  A    between atoms: P_33  and  O_36 
DOCKED: USER                              x       y       z     vdW  Elec       q    Type
DOCKED: USER                           _______ _______ _______ _____ _____    ______ ____
DOCKED: ROOT
DOCKED: ATOM      1  C   UNL d   1     -14.071  -7.250   0.236 -0.01 +0.03    +0.194 C 
DOCKED: ATOM      2  C   UNL d   1     -15.138  -6.322   0.818 -0.02 +0.05    +0.194 C 
DOCKED: ATOM      3  C   UNL d   1     -14.856  -4.855   0.485 -0.06 +0.09    +0.194 C 
DOCKED: ATOM      4  C   UNL d   1     -14.627  -4.610  -1.005 -0.06 +0.05    +0.194 C 
DOCKED: ATOM      5  C   UNL d   1     -13.655  -5.587  -1.653 -0.05 +0.02    +0.194 C 
DOCKED: ATOM      6  C   UNL d   1     -13.899  -7.049  -1.270 -0.01 +0.01    +0.194 C 
DOCKED: ENDROOT
DOCKED: BRANCH   1   7
DOCKED: ATOM      7  O   UNL d   1     -14.494  -8.600   0.440 +0.00 -0.01    -0.278 OA
DOCKED: BRANCH   7   8
DOCKED: ATOM      8  P   UNL d   1     -14.528  -9.168   1.933 +0.01 +0.04    +0.473 P 
DOCKED: ATOM      9  O   UNL d   1     -13.262  -9.004   2.699 -0.01 -0.02    -0.228 OA
DOCKED: BRANCH   8  10
DOCKED: ATOM     10  O   UNL d   1     -15.769  -8.422   2.603 +0.00 -0.04    -0.303 OA
DOCKED: ATOM     11  H   UNL d   1     -16.380  -8.114   1.907 +0.00 +0.03    +0.222 HD
DOCKED: ENDBRANCH   8  10
DOCKED: BRANCH   8  12
DOCKED: ATOM     12  O   UNL d   1     -15.068 -10.656   1.797 +0.00 -0.01    -0.303 OA
DOCKED: ATOM     13  H   UNL d   1     -14.393 -11.334   2.026 +0.00 +0.00    +0.222 HD
DOCKED: ENDBRANCH   8  12
DOCKED: ENDBRANCH   7   8
DOCKED: ENDBRANCH   1   7
DOCKED: BRANCH   2  14
DOCKED: ATOM     14  O   UNL d   1     -16.414  -6.677   0.271 -0.00 -0.04    -0.278 OA
DOCKED: BRANCH  14  15
DOCKED: ATOM     15  P   UNL d   1     -17.673  -6.555   1.253 +0.01 +0.07    +0.473 P 
DOCKED: ATOM     16  O   UNL d   1     -18.550  -7.762   1.375 +0.00 -0.02    -0.228 OA
DOCKED: BRANCH  15  17
DOCKED: ATOM     17  O   UNL d   1     -17.037  -6.110   2.645 -0.00 -0.08    -0.303 OA
DOCKED: ATOM     18  H   UNL d   1     -16.604  -5.238   2.571 +0.01 +0.09    +0.222 HD
DOCKED: ENDBRANCH  15  17
DOCKED: BRANCH  15  19
DOCKED: ATOM     19  O   UNL d   1     -18.405  -5.219   0.796 +0.00 -0.04    -0.303 OA
DOCKED: ATOM     20  H   UNL d   1     -17.931  -4.424   1.104 +0.01 +0.05    +0.222 HD
DOCKED: ENDBRANCH  15  19
DOCKED: ENDBRANCH  14  15
DOCKED: ENDBRANCH   2  14
DOCKED: BRANCH   6  21
DOCKED: ATOM     21  O   UNL d   1     -12.737  -7.777  -1.660 -0.01 +0.04    -0.278 OA
DOCKED: BRANCH  21  22
DOCKED: ATOM     22  P   UNL d   1     -11.301  -7.308  -1.147 -0.04 -0.12    +0.473 P 
DOCKED: ATOM     23  O   UNL d   1     -11.171  -6.854   0.268 -0.09 -0.00    -0.228 OA
DOCKED: BRANCH  22  24
DOCKED: ATOM     24  O   UNL d   1     -10.394  -8.558  -1.533 -0.06 +0.30    -0.303 OA
DOCKED: ATOM     25  H   UNL d   1      -9.753  -8.270  -2.232 -0.46 -0.42    +0.222 HD
DOCKED: ENDBRANCH  22  24
DOCKED: BRANCH  22  26
DOCKED: ATOM     26  O   UNL d   1     -10.887  -6.240  -2.269 -0.10 +0.07    -0.303 OA
DOCKED: ATOM     27  H   UNL d   1     -11.680  -5.733  -2.538 +0.09 -0.02    +0.222 HD
DOCKED: ENDBRANCH  22  26
DOCKED: ENDBRANCH  21  22
DOCKED: ENDBRANCH   6  21
DOCKED: BRANCH   3  28
DOCKED: ATOM     28  O   UNL d   1     -16.020  -4.109   0.816 -0.04 -0.12    -0.278 OA
DOCKED: BRANCH  28  29
DOCKED: ATOM     29  P   UNL d   1     -15.957  -2.970   1.927 -0.03 +0.40    +0.473 P 
DOCKED: ATOM     30  O   UNL d   1     -15.834  -3.447   3.328 -0.18 -0.26    -0.228 OA
DOCKED: BRANCH  29  31
DOCKED: ATOM     31  O   UNL d   1     -14.753  -2.086   1.352 -0.60 -0.37    -0.303 OA
DOCKED: ATOM     32  H   UNL d   1     -14.559  -2.380   0.432 +0.05 +0.17    +0.222 HD
DOCKED: ENDBRANCH  29  31
DOCKED: BRANCH  29  33
DOCKED: ATOM     33  O   UNL d   1     -17.237  -2.090   1.576 -0.03 -0.12    -0.303 OA
DOCKED: ATOM     34  H   UNL d   1     -17.335  -2.042   0.594 +0.03 +0.06    +0.222 HD
DOCKED: ENDBRANCH  29  33
DOCKED: ENDBRANCH  28  29
DOCKED: ENDBRANCH   3  28
DOCKED: BRANCH   5  35
DOCKED: ATOM     35  O   UNL d   1     -13.875  -5.479  -3.057 -0.05 -0.01    -0.278 OA
DOCKED: BRANCH  35  36
DOCKED: ATOM     36  P   UNL d   1     -12.963  -4.515  -3.943 -0.18 +0.02    +0.473 P 
DOCKED: ATOM     37  O   UNL d   1     -13.696  -3.642  -4.910 -0.24 -0.04    -0.228 OA
DOCKED: BRANCH  36  38
DOCKED: ATOM     38  O   UNL d   1     -12.151  -3.719  -2.827 -0.18 -0.04    -0.303 OA
DOCKED: ATOM     39  H   UNL d   1     -12.604  -2.867  -2.648 +0.10 +0.04    +0.222 HD
DOCKED: ENDBRANCH  36  38
DOCKED: BRANCH  36  40
DOCKED: ATOM     40  O   UNL d   1     -11.892  -5.523  -4.549 -0.13 +0.03    -0.303 OA
DOCKED: ATOM     41  H   UNL d   1     -11.901  -6.388  -4.082 +0.09 -0.04    +0.222 HD
DOCKED: ENDBRANCH  36  40
DOCKED: ENDBRANCH  35  36
DOCKED: ENDBRANCH   5  35
DOCKED: BRANCH   4  42
DOCKED: ATOM     42  O   UNL d   1     -14.055  -3.303  -1.127 -0.10 -0.09    -0.278 OA
DOCKED: BRANCH  42  43
DOCKED: ATOM     43  P   UNL d   1     -14.812  -2.208  -2.005 -0.19 +0.10    +0.473 P 
DOCKED: ATOM     44  O   UNL d   1     -13.983  -1.155  -2.654 -0.35 -0.04    -0.228 OA
DOCKED: BRANCH  43  45
DOCKED: ATOM     45  O   UNL d   1     -15.651  -3.097  -3.024 -0.13 -0.04    -0.303 OA
DOCKED: ATOM     46  H   UNL d   1     -15.080  -3.739  -3.492 +0.07 +0.03    +0.222 HD
DOCKED: ENDBRANCH  43  45
DOCKED: BRANCH  43  47
DOCKED: ATOM     47  O   UNL d   1     -15.958  -1.676  -1.018 -0.11 -0.07    -0.303 OA
DOCKED: ATOM     48  H   UNL d   1     -16.050  -2.297  -0.266 +0.05 +0.07    +0.222 HD
DOCKED: ENDBRANCH  43  47
DOCKED: ENDBRANCH  42  43
DOCKED: ENDBRANCH   4  42
DOCKED: TORSDOF 24
DOCKED: TER
DOCKED: ENDMDL
________________________________________________________________________________


	BEGINNING GENETIC ALGORITHM DOCKING 55 of 100
Run: 55 Seed: 1327903669 864392240 [ Run 55 of 100 GA/GALS ]
Beginning LAMARCKIAN GENETIC ALGORITHM (LGA), with a maximum of 25000000 energy evaluations.

Final-Value: -18.229


	FINAL GENETIC ALGORITHM DOCKED STATE
	_______________________________________________


Detailed state:  trans -14.101 -4.482 -3.159 quatxyzw -0.282283 -0.624381 0.622363 0.378325 center 0.035 0.082 -0.065 ntor 24 138.1989 53.2713 117.6356 -34.0072 16.8227 -146.0315 -128.3613 -14.8290 107.8526 -38.8913 -42.7951 -128.9580 161.4266 87.2442 -49.0077 56.3030 -180.0000 -11.7179 31.6842 -9.0548 179.9758 154.2175 16.6123 133.1186
State:	-14.101  -4.482  -3.159  -0.305 -0.675  0.672 135.540    138.20   53.27  117.64  -34.01   16.82 -146.03 -128.36  -14.83  107.85  -38.89  -42.80 -128.96  161.43   87.24  -49.01   56.30 -180.00  -11.72   31.68   -9.05  179.98  154.22   16.61  133.12

DOCKED: MODEL       55
DOCKED: USER    Run = 55
DOCKED: USER    DPF = D:/Protein_go_brrr/autodock/final/mut_D99N/IHP/dock.dpf
DOCKED: USER  
DOCKED: USER    Estimated Free Energy of Binding    =   +2.46 kcal/mol  [=(1)+(2)+(3)-(4)]
DOCKED: USER    
DOCKED: USER    (1) Final Intermolecular Energy     =   -4.70 kcal/mol
DOCKED: USER        vdW + Hbond + desolv Energy     =   -4.38 kcal/mol
DOCKED: USER        Electrostatic Energy            =   -0.32 kcal/mol
DOCKED: USER    (2) Final Total Internal Energy     =  -13.53 kcal/mol
DOCKED: USER    (3) Torsional Free Energy           =   +7.16 kcal/mol
DOCKED: USER    (4) Unbound System's Energy  [=(2)] =  -13.53 kcal/mol
DOCKED: USER    
DOCKED: USER    
DOCKED: USER    NEWDPF move IHP_ideal_opt.pdbqt
DOCKED: USER    NEWDPF about 0.035000 0.082000 -0.065000
DOCKED: USER    NEWDPF tran0 -14.100652 -4.482100 -3.159049
DOCKED: USER    NEWDPF quaternion0 -0.282283 -0.624381 0.622363 0.378325
DOCKED: USER    NEWDPF axisangle0 -0.304948 -0.674516 0.672335 135.540070
DOCKED: USER    NEWDPF quat0 -0.304948 -0.674516 0.672335 135.540070
DOCKED: USER    NEWDPF dihe0 138.20 53.27 117.64 -34.01 16.82 -146.03 -128.36 -14.83 107.85 -38.89 -42.80 -128.96 161.43 87.24 -49.01 56.30 -180.00 -11.72 31.68 -9.05 179.98 154.22 16.61 133.12 
DOCKED: USER  keepresnum = 1 
DOCKED: USER  
DOCKED: REMARK  24 active torsions:
DOCKED: REMARK  status: ('A' for Active; 'I' for Inactive)
DOCKED: REMARK    1  A    between atoms: C_1  and  O_7 
DOCKED: REMARK    2  A    between atoms: C_2  and  O_12 
DOCKED: REMARK    3  A    between atoms: C_3  and  O_17 
DOCKED: REMARK    4  A    between atoms: C_4  and  O_22 
DOCKED: REMARK    5  A    between atoms: C_5  and  O_27 
DOCKED: REMARK    6  A    between atoms: C_6  and  O_32 
DOCKED: REMARK    7  A    between atoms: O_7  and  P_8 
DOCKED: REMARK    8  A    between atoms: P_8  and  O_10 
DOCKED: REMARK    9  A    between atoms: P_8  and  O_11 
DOCKED: REMARK   10  A    between atoms: O_12  and  P_13 
DOCKED: REMARK   11  A    between atoms: P_13  and  O_15 
DOCKED: REMARK   12  A    between atoms: P_13  and  O_16 
DOCKED: REMARK   13  A    between atoms: O_17  and  P_18 
DOCKED: REMARK   14  A    between atoms: P_18  and  O_20 
DOCKED: REMARK   15  A    between atoms: P_18  and  O_21 
DOCKED: REMARK   16  A    between atoms: O_22  and  P_23 
DOCKED: REMARK   17  A    between atoms: P_23  and  O_25 
DOCKED: REMARK   18  A    between atoms: P_23  and  O_26 
DOCKED: REMARK   19  A    between atoms: O_27  and  P_28 
DOCKED: REMARK   20  A    between atoms: P_28  and  O_30 
DOCKED: REMARK   21  A    between atoms: P_28  and  O_31 
DOCKED: REMARK   22  A    between atoms: O_32  and  P_33 
DOCKED: REMARK   23  A    between atoms: P_33  and  O_35 
DOCKED: REMARK   24  A    between atoms: P_33  and  O_36 
DOCKED: USER                              x       y       z     vdW  Elec       q    Type
DOCKED: USER                           _______ _______ _______ _____ _____    ______ ____
DOCKED: ROOT
DOCKED: ATOM      1  C   UNL d   1     -15.431  -5.473  -3.643 -0.09 +0.01    +0.194 C 
DOCKED: ATOM      2  C   UNL d   1     -15.446  -5.012  -2.184 -0.06 +0.02    +0.194 C 
DOCKED: ATOM      3  C   UNL d   1     -14.061  -5.123  -1.541 -0.06 +0.03    +0.194 C 
DOCKED: ATOM      4  C   UNL d   1     -12.965  -4.436  -2.352 -0.15 +0.02    +0.194 C 
DOCKED: ATOM      5  C   UNL d   1     -12.985  -4.778  -3.836 -0.21 +0.01    +0.194 C 
DOCKED: ATOM      6  C   UNL d   1     -14.379  -4.728  -4.465 -0.15 +0.01    +0.194 C 
DOCKED: ENDROOT
DOCKED: BRANCH   1   7
DOCKED: ATOM      7  O   UNL d   1     -16.707  -5.178  -4.216 -0.06 -0.00    -0.278 OA
DOCKED: BRANCH   7   8
DOCKED: ATOM      8  P   UNL d   1     -17.847  -6.295  -4.145 -0.03 -0.01    +0.473 P 
DOCKED: ATOM      9  O   UNL d   1     -18.781  -6.318  -5.303 -0.04 +0.01    -0.228 OA
DOCKED: BRANCH   8  10
DOCKED: ATOM     10  O   UNL d   1     -17.041  -7.660  -3.961 -0.01 +0.01    -0.303 OA
DOCKED: ATOM     11  H   UNL d   1     -16.116  -7.534  -4.245 +0.02 -0.01    +0.222 HD
DOCKED: ENDBRANCH   8  10
DOCKED: BRANCH   8  12
DOCKED: ATOM     12  O   UNL d   1     -18.517  -6.110  -2.716 -0.01 -0.01    -0.303 OA
DOCKED: ATOM     13  H   UNL d   1     -18.203  -5.306  -2.244 +0.02 +0.01    +0.222 HD
DOCKED: ENDBRANCH   8  12
DOCKED: ENDBRANCH   7   8
DOCKED: ENDBRANCH   1   7
DOCKED: BRANCH   2  14
DOCKED: ATOM     14  O   UNL d   1     -15.866  -3.643  -2.130 -0.08 -0.04    -0.278 OA
DOCKED: BRANCH  14  15
DOCKED: ATOM     15  P   UNL d   1     -17.155  -3.325  -1.236 -0.03 +0.07    +0.473 P 
DOCKED: ATOM     16  O   UNL d   1     -17.141  -2.040  -0.470 -0.07 -0.05    -0.228 OA
DOCKED: BRANCH  15  17
DOCKED: ATOM     17  O   UNL d   1     -18.371  -3.419  -2.261 -0.04 -0.02    -0.303 OA
DOCKED: ATOM     18  H   UNL d   1     -18.133  -3.956  -3.041 +0.03 +0.01    +0.222 HD
DOCKED: ENDBRANCH  15  17
DOCKED: BRANCH  15  19
DOCKED: ATOM     19  O   UNL d   1     -17.369  -4.640  -0.366 -0.01 -0.05    -0.303 OA
DOCKED: ATOM     20  H   UNL d   1     -17.997  -5.254  -0.789 +0.01 +0.02    +0.222 HD
DOCKED: ENDBRANCH  15  19
DOCKED: ENDBRANCH  14  15
DOCKED: ENDBRANCH   2  14
DOCKED: BRANCH   6  21
DOCKED: ATOM     21  O   UNL d   1     -14.287  -5.389  -5.725 -0.15 +0.00    -0.278 OA
DOCKED: BRANCH  21  22
DOCKED: ATOM     22  P   UNL d   1     -14.258  -6.983  -5.781 -0.05 -0.04    +0.473 P 
DOCKED: ATOM     23  O   UNL d   1     -13.901  -7.727  -4.538 -0.02 +0.03    -0.228 OA
DOCKED: BRANCH  22  24
DOCKED: ATOM     24  O   UNL d   1     -15.701  -7.314  -6.366 -0.05 +0.03    -0.303 OA
DOCKED: ATOM     25  H   UNL d   1     -16.370  -6.806  -5.841 +0.02 -0.02    +0.222 HD
DOCKED: ENDBRANCH  22  24
DOCKED: BRANCH  22  26
DOCKED: ATOM     26  O   UNL d   1     -13.317  -7.247  -7.053 -0.09 +0.05    -0.303 OA
DOCKED: ATOM     27  H   UNL d   1     -12.579  -6.604  -7.045 -0.03 -0.06    +0.222 HD
DOCKED: ENDBRANCH  22  26
DOCKED: ENDBRANCH  21  22
DOCKED: ENDBRANCH   6  21
DOCKED: BRANCH   3  28
DOCKED: ATOM     28  O   UNL d   1     -14.108  -4.425  -0.303 -0.06 -0.11    -0.278 OA
DOCKED: BRANCH  28  29
DOCKED: ATOM     29  P   UNL d   1     -13.630  -2.909  -0.215 -0.12 +0.27    +0.473 P 
DOCKED: ATOM     30  O   UNL d   1     -13.820  -2.105  -1.450 -0.19 -0.07    -0.228 OA
DOCKED: BRANCH  29  31
DOCKED: ATOM     31  O   UNL d   1     -14.430  -2.438   1.089 -0.58 -0.38    -0.303 OA
DOCKED: ATOM     32  H   UNL d   1     -15.372  -2.291   0.842 +0.04 +0.16    +0.222 HD
DOCKED: ENDBRANCH  29  31
DOCKED: BRANCH  29  33
DOCKED: ATOM     33  O   UNL d   1     -12.139  -3.059   0.323 -0.13 -0.23    -0.303 OA
DOCKED: ATOM     34  H   UNL d   1     -11.691  -3.788  -0.171 +0.08 +0.10    +0.222 HD
DOCKED: ENDBRANCH  29  33
DOCKED: ENDBRANCH  28  29
DOCKED: ENDBRANCH   3  28
DOCKED: BRANCH   5  35
DOCKED: ATOM     35  O   UNL d   1     -12.199  -3.774  -4.475 -0.23 -0.03    -0.278 OA
DOCKED: BRANCH  35  36
DOCKED: ATOM     36  P   UNL d   1     -11.341  -4.127  -5.772 -0.13 -0.02    +0.473 P 
DOCKED: ATOM     37  O   UNL d   1      -9.948  -3.585  -5.792 -0.34 -0.00    -0.228 OA
DOCKED: BRANCH  36  38
DOCKED: ATOM     38  O   UNL d   1     -11.425  -5.717  -5.795 -0.16 +0.09    -0.303 OA
DOCKED: ATOM     39  H   UNL d   1     -12.322  -5.996  -5.511 +0.09 -0.04    +0.222 HD
DOCKED: ENDBRANCH  36  38
DOCKED: BRANCH  36  40
DOCKED: ATOM     40  O   UNL d   1     -12.308  -3.676  -6.952 -0.96 -0.07    -0.303 OA
DOCKED: ATOM     41  H   UNL d   1     -12.996  -4.353  -7.138 +0.05 +0.03    +0.222 HD
DOCKED: ENDBRANCH  36  40
DOCKED: ENDBRANCH  35  36
DOCKED: ENDBRANCH   5  35
DOCKED: BRANCH   4  42
DOCKED: ATOM     42  O   UNL d   1     -11.714  -4.896  -1.830 -0.11 -0.02    -0.278 OA
DOCKED: BRANCH  42  43
DOCKED: ATOM     43  P   UNL d   1     -11.672  -6.275  -1.029 -0.04 -0.01    +0.473 P 
DOCKED: ATOM     44  O   UNL d   1     -12.603  -7.352  -1.468 -0.02 +0.02    -0.228 OA
DOCKED: BRANCH  43  45
DOCKED: ATOM     45  O   UNL d   1     -10.134  -6.674  -1.102 -0.14 +0.09    -0.303 OA
DOCKED: ATOM     46  H   UNL d   1     -10.002  -7.502  -1.606 -0.00 -0.17    +0.222 HD
DOCKED: ENDBRANCH  43  45
DOCKED: BRANCH  43  47
DOCKED: ATOM     47  O   UNL d   1     -11.818  -5.815   0.500 -0.09 -0.09    -0.303 OA
DOCKED: ATOM     48  H   UNL d   1     -12.580  -5.206   0.582 +0.04 +0.11    +0.222 HD
DOCKED: ENDBRANCH  43  47
DOCKED: ENDBRANCH  42  43
DOCKED: ENDBRANCH   4  42
DOCKED: TORSDOF 24
DOCKED: TER
DOCKED: ENDMDL
________________________________________________________________________________


	BEGINNING GENETIC ALGORITHM DOCKING 56 of 100
Run: 56 Seed: 742979717 1810304272 [ Run 56 of 100 GA/GALS ]
Beginning LAMARCKIAN GENETIC ALGORITHM (LGA), with a maximum of 25000000 energy evaluations.

Final-Value: -17.786


	FINAL GENETIC ALGORITHM DOCKED STATE
	_______________________________________________


Detailed state:  trans -14.074 13.151 -14.520 quatxyzw -0.116685 0.498425 -0.856601 -0.064739 center 0.035 0.082 -0.065 ntor 24 135.4085 111.9171 48.8459 53.5853 -28.8789 -72.0988 43.6727 -79.8380 17.8820 10.5515 37.5635 159.0309 153.3060 161.1585 -7.7107 95.9553 -72.0907 178.0791 8.8772 -21.3378 156.1588 -27.0070 -162.6527 22.6421
State:	-14.074  13.151 -14.520  -0.117  0.499 -0.858 -172.576    135.41  111.92   48.85   53.59  -28.88  -72.10   43.67  -79.84   17.88   10.55   37.56  159.03  153.31  161.16   -7.71   95.96  -72.09  178.08    8.88  -21.34  156.16  -27.01 -162.65   22.64

DOCKED: MODEL       56
DOCKED: USER    Run = 56
DOCKED: USER    DPF = D:/Protein_go_brrr/autodock/final/mut_D99N/IHP/dock.dpf
DOCKED: USER  
DOCKED: USER    Estimated Free Energy of Binding    =   +3.28 kcal/mol  [=(1)+(2)+(3)-(4)]
DOCKED: USER    
DOCKED: USER    (1) Final Intermolecular Energy     =   -3.88 kcal/mol
DOCKED: USER        vdW + Hbond + desolv Energy     =   -3.47 kcal/mol
DOCKED: USER        Electrostatic Energy            =   -0.41 kcal/mol
DOCKED: USER    (2) Final Total Internal Energy     =  -13.91 kcal/mol
DOCKED: USER    (3) Torsional Free Energy           =   +7.16 kcal/mol
DOCKED: USER    (4) Unbound System's Energy  [=(2)] =  -13.91 kcal/mol
DOCKED: USER    
DOCKED: USER    
DOCKED: USER    NEWDPF move IHP_ideal_opt.pdbqt
DOCKED: USER    NEWDPF about 0.035000 0.082000 -0.065000
DOCKED: USER    NEWDPF tran0 -14.074261 13.150518 -14.519666
DOCKED: USER    NEWDPF quaternion0 -0.116685 0.498425 -0.856601 -0.064739
DOCKED: USER    NEWDPF axisangle0 -0.116930 0.499473 -0.858402 -172.576309
DOCKED: USER    NEWDPF quat0 -0.116930 0.499473 -0.858402 -172.576309
DOCKED: USER    NEWDPF dihe0 135.41 111.92 48.85 53.59 -28.88 -72.10 43.67 -79.84 17.88 10.55 37.56 159.03 153.31 161.16 -7.71 95.96 -72.09 178.08 8.88 -21.34 156.16 -27.01 -162.65 22.64 
DOCKED: USER  keepresnum = 1 
DOCKED: USER  
DOCKED: REMARK  24 active torsions:
DOCKED: REMARK  status: ('A' for Active; 'I' for Inactive)
DOCKED: REMARK    1  A    between atoms: C_1  and  O_7 
DOCKED: REMARK    2  A    between atoms: C_2  and  O_12 
DOCKED: REMARK    3  A    between atoms: C_3  and  O_17 
DOCKED: REMARK    4  A    between atoms: C_4  and  O_22 
DOCKED: REMARK    5  A    between atoms: C_5  and  O_27 
DOCKED: REMARK    6  A    between atoms: C_6  and  O_32 
DOCKED: REMARK    7  A    between atoms: O_7  and  P_8 
DOCKED: REMARK    8  A    between atoms: P_8  and  O_10 
DOCKED: REMARK    9  A    between atoms: P_8  and  O_11 
DOCKED: REMARK   10  A    between atoms: O_12  and  P_13 
DOCKED: REMARK   11  A    between atoms: P_13  and  O_15 
DOCKED: REMARK   12  A    between atoms: P_13  and  O_16 
DOCKED: REMARK   13  A    between atoms: O_17  and  P_18 
DOCKED: REMARK   14  A    between atoms: P_18  and  O_20 
DOCKED: REMARK   15  A    between atoms: P_18  and  O_21 
DOCKED: REMARK   16  A    between atoms: O_22  and  P_23 
DOCKED: REMARK   17  A    between atoms: P_23  and  O_25 
DOCKED: REMARK   18  A    between atoms: P_23  and  O_26 
DOCKED: REMARK   19  A    between atoms: O_27  and  P_28 
DOCKED: REMARK   20  A    between atoms: P_28  and  O_30 
DOCKED: REMARK   21  A    between atoms: P_28  and  O_31 
DOCKED: REMARK   22  A    between atoms: O_32  and  P_33 
DOCKED: REMARK   23  A    between atoms: P_33  and  O_35 
DOCKED: REMARK   24  A    between atoms: P_33  and  O_36 
DOCKED: USER                              x       y       z     vdW  Elec       q    Type
DOCKED: USER                           _______ _______ _______ _____ _____    ______ ____
DOCKED: ROOT
DOCKED: ATOM      1  C   UNL d   1     -15.069  12.642 -13.202 -0.07 -0.08    +0.194 C 
DOCKED: ATOM      2  C   UNL d   1     -13.958  13.633 -12.848 -0.08 -0.07    +0.194 C 
DOCKED: ATOM      3  C   UNL d   1     -12.641  13.278 -13.540 -0.07 -0.11    +0.194 C 
DOCKED: ATOM      4  C   UNL d   1     -12.786  13.089 -15.048 -0.16 -0.14    +0.194 C 
DOCKED: ATOM      5  C   UNL d   1     -13.954  12.198 -15.452 -0.08 -0.20    +0.194 C 
DOCKED: ATOM      6  C   UNL d   1     -15.257  12.512 -14.714 -0.07 -0.10    +0.194 C 
DOCKED: ENDROOT
DOCKED: BRANCH   1   7
DOCKED: ATOM      7  O   UNL d   1     -16.296  13.135 -12.661 -0.01 +0.08    -0.278 OA
DOCKED: BRANCH   7   8
DOCKED: ATOM      8  P   UNL d   1     -16.996  12.307 -11.487 +0.01 -0.17    +0.473 P 
DOCKED: ATOM      9  O   UNL d   1     -18.467  12.501 -11.368 -0.01 +0.06    -0.228 OA
DOCKED: BRANCH   8  10
DOCKED: ATOM     10  O   UNL d   1     -16.585  10.794 -11.784 -0.07 +0.18    -0.303 OA
DOCKED: ATOM     11  H   UNL d   1     -16.349  10.698 -12.725 +0.06 -0.12    +0.222 HD
DOCKED: ENDBRANCH   8  10
DOCKED: BRANCH   8  12
DOCKED: ATOM     12  O   UNL d   1     -16.145  12.634 -10.186 -0.04 +0.11    -0.303 OA
DOCKED: ATOM     13  H   UNL d   1     -16.221  13.573  -9.902 +0.05 -0.06    +0.222 HD
DOCKED: ENDBRANCH   8  12
DOCKED: ENDBRANCH   7   8
DOCKED: ENDBRANCH   1   7
DOCKED: BRANCH   2  14
DOCKED: ATOM     14  O   UNL d   1     -14.354  14.946 -13.264 -0.01 +0.06    -0.278 OA
DOCKED: BRANCH  14  15
DOCKED: ATOM     15  P   UNL d   1     -14.693  15.993 -12.101 +0.00 -0.07    +0.473 P 
DOCKED: ATOM     16  O   UNL d   1     -15.816  16.947 -12.362 -0.00 +0.02    -0.228 OA
DOCKED: BRANCH  15  17
DOCKED: ATOM     17  O   UNL d   1     -14.943  15.081 -10.819 -0.00 +0.05    -0.303 OA
DOCKED: ATOM     18  H   UNL d   1     -15.533  14.332 -11.029 +0.03 -0.05    +0.222 HD
DOCKED: ENDBRANCH  15  17
DOCKED: BRANCH  15  19
DOCKED: ATOM     19  O   UNL d   1     -13.293  16.662 -11.749 -0.00 +0.03    -0.303 OA
DOCKED: ATOM     20  H   UNL d   1     -12.559  16.234 -12.227 +0.01 -0.03    +0.222 HD
DOCKED: ENDBRANCH  15  19
DOCKED: ENDBRANCH  14  15
DOCKED: ENDBRANCH   2  14
DOCKED: BRANCH   6  21
DOCKED: ATOM     21  O   UNL d   1     -16.132  11.408 -14.934 -0.04 +0.15    -0.278 OA
DOCKED: BRANCH  21  22
DOCKED: ATOM     22  P   UNL d   1     -15.643   9.930 -14.589 -0.11 -0.39    +0.473 P 
DOCKED: ATOM     23  O   UNL d   1     -14.534   9.765 -13.605 -0.30 +0.24    -0.228 OA
DOCKED: BRANCH  22  24
DOCKED: ATOM     24  O   UNL d   1     -17.008   9.222 -14.181 -0.03 +0.16    -0.303 OA
DOCKED: ATOM     25  H   UNL d   1     -17.097   9.268 -13.195 +0.06 -0.13    +0.222 HD
DOCKED: ENDBRANCH  22  24
DOCKED: BRANCH  22  26
DOCKED: ATOM     26  O   UNL d   1     -15.381   9.325 -16.051 -0.11 +0.38    -0.303 OA
DOCKED: ATOM     27  H   UNL d   1     -14.424   9.151 -16.160 -0.30 -0.58    +0.222 HD
DOCKED: ENDBRANCH  22  26
DOCKED: ENDBRANCH  21  22
DOCKED: ENDBRANCH   6  21
DOCKED: BRANCH   3  28
DOCKED: ATOM     28  O   UNL d   1     -11.763  14.385 -13.382 -0.08 +0.10    -0.278 OA
DOCKED: BRANCH  28  29
DOCKED: ATOM     29  P   UNL d   1     -10.906  14.548 -12.049 -0.06 -0.12    +0.473 P 
DOCKED: ATOM     30  O   UNL d   1      -9.811  13.561 -11.867 -0.16 +0.08    -0.228 OA
DOCKED: BRANCH  29  31
DOCKED: ATOM     31  O   UNL d   1     -10.483  16.087 -12.176 -0.01 +0.04    -0.303 OA
DOCKED: ATOM     32  H   UNL d   1     -11.124  16.632 -11.663 +0.01 -0.02    +0.222 HD
DOCKED: ENDBRANCH  29  31
DOCKED: BRANCH  29  33
DOCKED: ATOM     33  O   UNL d   1     -12.036  14.585 -10.928 -0.05 +0.06    -0.303 OA
DOCKED: ATOM     34  H   UNL d   1     -12.896  14.835 -11.347 +0.03 -0.04    +0.222 HD
DOCKED: ENDBRANCH  29  33
DOCKED: ENDBRANCH  28  29
DOCKED: ENDBRANCH   3  28
DOCKED: BRANCH   5  35
DOCKED: ATOM     35  O   UNL d   1     -14.181  12.461 -16.835 -0.07 +0.30    -0.278 OA
DOCKED: BRANCH  35  36
DOCKED: ATOM     36  P   UNL d   1     -13.900  13.912 -17.435 -0.03 -0.24    +0.473 P 
DOCKED: ATOM     37  O   UNL d   1     -14.033  15.046 -16.469 -0.01 +0.07    -0.228 OA
DOCKED: BRANCH  36  38
DOCKED: ATOM     38  O   UNL d   1     -12.437  13.737 -18.040 -0.06 +0.18    -0.303 OA
DOCKED: ATOM     39  H   UNL d   1     -11.846  13.368 -17.349 -0.01 -0.17    +0.222 HD
DOCKED: ENDBRANCH  36  38
DOCKED: BRANCH  36  40
DOCKED: ATOM     40  O   UNL d   1     -14.843  13.939 -18.715 -0.01 +0.10    -0.303 OA
DOCKED: ATOM     41  H   UNL d   1     -14.951  13.044 -19.107 +0.01 -0.10    +0.222 HD
DOCKED: ENDBRANCH  36  40
DOCKED: ENDBRANCH  35  36
DOCKED: ENDBRANCH   5  35
DOCKED: BRANCH   4  42
DOCKED: ATOM     42  O   UNL d   1     -11.590  12.446 -15.502 -0.10 +0.29    -0.278 OA
DOCKED: BRANCH  42  43
DOCKED: ATOM     43  P   UNL d   1     -10.343  13.347 -15.926 -0.16 -0.22    +0.473 P 
DOCKED: ATOM     44  O   UNL d   1      -9.620  12.976 -17.174 -0.40 +0.09    -0.228 OA
DOCKED: BRANCH  43  45
DOCKED: ATOM     45  O   UNL d   1     -10.963  14.813 -15.944 -0.04 +0.09    -0.303 OA
DOCKED: ATOM     46  H   UNL d   1     -11.889  14.807 -16.257 +0.03 -0.08    +0.222 HD
DOCKED: ENDBRANCH  43  45
DOCKED: BRANCH  43  47
DOCKED: ATOM     47  O   UNL d   1      -9.451  13.387 -14.594 -0.51 +0.11    -0.303 OA
DOCKED: ATOM     48  H   UNL d   1     -10.017  13.186 -13.821 -0.46 -0.15    +0.222 HD
DOCKED: ENDBRANCH  43  47
DOCKED: ENDBRANCH  42  43
DOCKED: ENDBRANCH   4  42
DOCKED: TORSDOF 24
DOCKED: TER
DOCKED: ENDMDL
________________________________________________________________________________


	BEGINNING GENETIC ALGORITHM DOCKING 57 of 100
Run: 57 Seed: 244919900 955455486 [ Run 57 of 100 GA/GALS ]
Beginning LAMARCKIAN GENETIC ALGORITHM (LGA), with a maximum of 25000000 energy evaluations.

Final-Value: -18.429


	FINAL GENETIC ALGORITHM DOCKED STATE
	_______________________________________________


Detailed state:  trans -7.114 15.576 13.466 quatxyzw 0.224920 -0.915060 0.222918 0.249766 center 0.035 0.082 -0.065 ntor 24 180.0000 -49.8118 -39.0366 106.5260 46.8399 179.3360 51.9677 -149.4728 180.0000 -43.7842 148.3089 -131.1332 -119.7086 -19.6242 -62.5571 -105.3259 179.8969 105.7197 43.4377 -13.8637 -180.0000 46.6872 26.6052 -32.6775
State:	 -7.114  15.576  13.466   0.232 -0.945  0.230 151.073    180.00  -49.81  -39.04  106.53   46.84  179.34   51.97 -149.47  180.00  -43.78  148.31 -131.13 -119.71  -19.62  -62.56 -105.33  179.90  105.72   43.44  -13.86 -180.00   46.69   26.61  -32.68

DOCKED: MODEL       57
DOCKED: USER    Run = 57
DOCKED: USER    DPF = D:/Protein_go_brrr/autodock/final/mut_D99N/IHP/dock.dpf
DOCKED: USER  
DOCKED: USER    Estimated Free Energy of Binding    =   +1.48 kcal/mol  [=(1)+(2)+(3)-(4)]
DOCKED: USER    
DOCKED: USER    (1) Final Intermolecular Energy     =   -5.68 kcal/mol
DOCKED: USER        vdW + Hbond + desolv Energy     =   -5.35 kcal/mol
DOCKED: USER        Electrostatic Energy            =   -0.33 kcal/mol
DOCKED: USER    (2) Final Total Internal Energy     =  -12.75 kcal/mol
DOCKED: USER    (3) Torsional Free Energy           =   +7.16 kcal/mol
DOCKED: USER    (4) Unbound System's Energy  [=(2)] =  -12.75 kcal/mol
DOCKED: USER    
DOCKED: USER    
DOCKED: USER    NEWDPF move IHP_ideal_opt.pdbqt
DOCKED: USER    NEWDPF about 0.035000 0.082000 -0.065000
DOCKED: USER    NEWDPF tran0 -7.114404 15.575719 13.466333
DOCKED: USER    NEWDPF quaternion0 0.224920 -0.915060 0.222918 0.249766
DOCKED: USER    NEWDPF axisangle0 0.232282 -0.945011 0.230215 151.072728
DOCKED: USER    NEWDPF quat0 0.232282 -0.945011 0.230215 151.072728
DOCKED: USER    NEWDPF dihe0 180.00 -49.81 -39.04 106.53 46.84 179.34 51.97 -149.47 180.00 -43.78 148.31 -131.13 -119.71 -19.62 -62.56 -105.33 179.90 105.72 43.44 -13.86 -180.00 46.69 26.61 -32.68 
DOCKED: USER  keepresnum = 1 
DOCKED: USER  
DOCKED: REMARK  24 active torsions:
DOCKED: REMARK  status: ('A' for Active; 'I' for Inactive)
DOCKED: REMARK    1  A    between atoms: C_1  and  O_7 
DOCKED: REMARK    2  A    between atoms: C_2  and  O_12 
DOCKED: REMARK    3  A    between atoms: C_3  and  O_17 
DOCKED: REMARK    4  A    between atoms: C_4  and  O_22 
DOCKED: REMARK    5  A    between atoms: C_5  and  O_27 
DOCKED: REMARK    6  A    between atoms: C_6  and  O_32 
DOCKED: REMARK    7  A    between atoms: O_7  and  P_8 
DOCKED: REMARK    8  A    between atoms: P_8  and  O_10 
DOCKED: REMARK    9  A    between atoms: P_8  and  O_11 
DOCKED: REMARK   10  A    between atoms: O_12  and  P_13 
DOCKED: REMARK   11  A    between atoms: P_13  and  O_15 
DOCKED: REMARK   12  A    between atoms: P_13  and  O_16 
DOCKED: REMARK   13  A    between atoms: O_17  and  P_18 
DOCKED: REMARK   14  A    between atoms: P_18  and  O_20 
DOCKED: REMARK   15  A    between atoms: P_18  and  O_21 
DOCKED: REMARK   16  A    between atoms: O_22  and  P_23 
DOCKED: REMARK   17  A    between atoms: P_23  and  O_25 
DOCKED: REMARK   18  A    between atoms: P_23  and  O_26 
DOCKED: REMARK   19  A    between atoms: O_27  and  P_28 
DOCKED: REMARK   20  A    between atoms: P_28  and  O_30 
DOCKED: REMARK   21  A    between atoms: P_28  and  O_31 
DOCKED: REMARK   22  A    between atoms: O_32  and  P_33 
DOCKED: REMARK   23  A    between atoms: P_33  and  O_35 
DOCKED: REMARK   24  A    between atoms: P_33  and  O_36 
DOCKED: USER                              x       y       z     vdW  Elec       q    Type
DOCKED: USER                           _______ _______ _______ _____ _____    ______ ____
DOCKED: ROOT
DOCKED: ATOM      1  C   UNL d   1      -7.377  13.977  12.868 -0.15 -0.04    +0.194 C 
DOCKED: ATOM      2  C   UNL d   1      -6.375  14.096  14.018 -0.14 -0.04    +0.194 C 
DOCKED: ATOM      3  C   UNL d   1      -5.436  15.289  13.830 -0.09 -0.04    +0.194 C 
DOCKED: ATOM      4  C   UNL d   1      -6.175  16.600  13.569 -0.02 -0.03    +0.194 C 
DOCKED: ATOM      5  C   UNL d   1      -7.263  16.499  12.509 -0.03 -0.03    +0.194 C 
DOCKED: ATOM      6  C   UNL d   1      -8.164  15.271  12.661 -0.08 -0.05    +0.194 C 
DOCKED: ENDROOT
DOCKED: BRANCH   1   7
DOCKED: ATOM      7  O   UNL d   1      -8.319  12.954  13.201 -0.18 +0.07    -0.278 OA
DOCKED: BRANCH   7   8
DOCKED: ATOM      8  P   UNL d   1      -7.885  11.429  13.002 -0.30 -0.14    +0.473 P 
DOCKED: ATOM      9  O   UNL d   1      -7.706  11.004  11.587 -0.51 +0.07    -0.228 OA
DOCKED: BRANCH   8  10
DOCKED: ATOM     10  O   UNL d   1      -6.557  11.288  13.873 -0.20 +0.10    -0.303 OA
DOCKED: ATOM     11  H   UNL d   1      -6.535  11.988  14.552 +0.05 -0.07    +0.222 HD
DOCKED: ENDBRANCH   8  10
DOCKED: BRANCH   8  12
DOCKED: ATOM     12  O   UNL d   1      -8.932  10.589  13.852 -0.38 +0.13    -0.303 OA
DOCKED: ATOM     13  H   UNL d   1      -8.611  10.377  14.758 -0.46 -0.17    +0.222 HD
DOCKED: ENDBRANCH   8  12
DOCKED: ENDBRANCH   7   8
DOCKED: ENDBRANCH   1   7
DOCKED: BRANCH   2  14
DOCKED: ATOM     14  O   UNL d   1      -7.093  14.268  15.246 -0.06 +0.06    -0.278 OA
DOCKED: BRANCH  14  15
DOCKED: ATOM     15  P   UNL d   1      -6.906  13.123  16.350 -0.18 -0.13    +0.473 P 
DOCKED: ATOM     16  O   UNL d   1      -5.549  12.500  16.450 -0.96 +0.05    -0.228 OA
DOCKED: BRANCH  15  17
DOCKED: ATOM     17  O   UNL d   1      -7.369  13.816  17.708 -0.07 +0.08    -0.303 OA
DOCKED: ATOM     18  H   UNL d   1      -6.741  13.625  18.432 +0.07 -0.08    +0.222 HD
DOCKED: ENDBRANCH  15  17
DOCKED: BRANCH  15  19
DOCKED: ATOM     19  O   UNL d   1      -8.106  12.114  16.082 -0.03 +0.13    -0.303 OA
DOCKED: ATOM     20  H   UNL d   1      -8.192  11.901  15.134 -0.14 -0.10    +0.222 HD
DOCKED: ENDBRANCH  15  19
DOCKED: ENDBRANCH  14  15
DOCKED: ENDBRANCH   2  14
DOCKED: BRANCH   6  21
DOCKED: ATOM     21  O   UNL d   1      -8.882  15.133  11.437 -0.14 +0.11    -0.278 OA
DOCKED: BRANCH  21  22
DOCKED: ATOM     22  P   UNL d   1      -8.157  14.511  10.159 -0.15 -0.17    +0.473 P 
DOCKED: ATOM     23  O   UNL d   1      -6.696  14.757   9.989 -0.29 +0.04    -0.228 OA
DOCKED: BRANCH  22  24
DOCKED: ATOM     24  O   UNL d   1      -8.568  12.978  10.266 -0.22 +0.11    -0.303 OA
DOCKED: ATOM     25  H   UNL d   1      -8.855  12.799  11.198 +0.12 -0.05    +0.222 HD
DOCKED: ENDBRANCH  22  24
DOCKED: BRANCH  22  26
DOCKED: ATOM     26  O   UNL d   1      -9.100  15.024   8.968 -0.14 +0.24    -0.303 OA
DOCKED: ATOM     27  H   UNL d   1      -9.782  15.625   9.333 -0.37 -0.32    +0.222 HD
DOCKED: ENDBRANCH  22  26
DOCKED: ENDBRANCH  21  22
DOCKED: ENDBRANCH   6  21
DOCKED: BRANCH   3  28
DOCKED: ATOM     28  O   UNL d   1      -4.741  15.485  15.055 -0.08 +0.05    -0.278 OA
DOCKED: BRANCH  28  29
DOCKED: ATOM     29  P   UNL d   1      -3.345  16.250  15.075 -0.07 -0.07    +0.473 P 
DOCKED: ATOM     30  O   UNL d   1      -2.255  15.576  15.825 -0.12 +0.02    -0.228 OA
DOCKED: BRANCH  29  31
DOCKED: ATOM     31  O   UNL d   1      -3.122  16.464  13.504 -0.05 +0.05    -0.303 OA
DOCKED: ATOM     32  H   UNL d   1      -3.324  17.402  13.283 +0.04 -0.03    +0.222 HD
DOCKED: ENDBRANCH  29  31
DOCKED: BRANCH  29  33
DOCKED: ATOM     33  O   UNL d   1      -3.768  17.703  15.570 -0.01 +0.03    -0.303 OA
DOCKED: ATOM     34  H   UNL d   1      -3.980  18.262  14.783 +0.02 -0.02    +0.222 HD
DOCKED: ENDBRANCH  29  33
DOCKED: ENDBRANCH  28  29
DOCKED: ENDBRANCH   3  28
DOCKED: BRANCH   5  35
DOCKED: ATOM     35  O   UNL d   1      -8.087  17.649  12.689 -0.01 +0.05    -0.278 OA
DOCKED: BRANCH  35  36
DOCKED: ATOM     36  P   UNL d   1      -8.981  18.195  11.486 -0.00 -0.11    +0.473 P 
DOCKED: ATOM     37  O   UNL d   1      -8.962  19.677  11.289 -0.00 +0.03    -0.228 OA
DOCKED: BRANCH  36  38
DOCKED: ATOM     38  O   UNL d   1      -8.411  17.364  10.253 -0.04 +0.09    -0.303 OA
DOCKED: ATOM     39  H   UNL d   1      -9.087  16.714   9.963 +0.05 -0.12    +0.222 HD
DOCKED: ENDBRANCH  36  38
DOCKED: BRANCH  36  40
DOCKED: ATOM     40  O   UNL d   1     -10.393  17.524  11.780 -0.04 +0.12    -0.303 OA
DOCKED: ATOM     41  H   UNL d   1     -10.451  16.618  11.403 +0.03 -0.14    +0.222 HD
DOCKED: ENDBRANCH  36  40
DOCKED: ENDBRANCH  35  36
DOCKED: ENDBRANCH   5  35
DOCKED: BRANCH   4  42
DOCKED: ATOM     42  O   UNL d   1      -5.203  17.535  13.088 -0.01 +0.03    -0.278 OA
DOCKED: BRANCH  42  43
DOCKED: ATOM     43  P   UNL d   1      -5.327  19.066  13.517 +0.00 -0.04    +0.473 P 
DOCKED: ATOM     44  O   UNL d   1      -4.071  19.863  13.589 -0.00 +0.01    -0.228 OA
DOCKED: BRANCH  43  45
DOCKED: ATOM     45  O   UNL d   1      -6.398  19.632  12.484 -0.00 +0.02    -0.303 OA
DOCKED: ATOM     46  H   UNL d   1      -7.303  19.341  12.712 +0.00 -0.02    +0.222 HD
DOCKED: ENDBRANCH  43  45
DOCKED: BRANCH  43  47
DOCKED: ATOM     47  O   UNL d   1      -6.183  18.999  14.870 -0.00 +0.03    -0.303 OA
DOCKED: ATOM     48  H   UNL d   1      -5.805  18.313  15.458 +0.01 -0.02    +0.222 HD
DOCKED: ENDBRANCH  43  47
DOCKED: ENDBRANCH  42  43
DOCKED: ENDBRANCH   4  42
DOCKED: TORSDOF 24
DOCKED: TER
DOCKED: ENDMDL
________________________________________________________________________________


	BEGINNING GENETIC ALGORITHM DOCKING 58 of 100
Run: 58 Seed: 559248207 1125452097 [ Run 58 of 100 GA/GALS ]
Beginning LAMARCKIAN GENETIC ALGORITHM (LGA), with a maximum of 25000000 energy evaluations.

Final-Value: -15.565


	FINAL GENETIC ALGORITHM DOCKED STATE
	_______________________________________________


Detailed state:  trans 7.634 6.733 -11.368 quatxyzw -0.576602 0.762089 0.275011 0.105446 center 0.035 0.082 -0.065 ntor 24 131.8918 144.0073 -40.1319 118.4671 45.7109 -67.0628 -94.5440 -31.5847 45.2585 179.6144 173.1531 -95.4568 -88.1095 -20.5737 -58.4642 39.8302 -82.9622 76.1860 -135.4395 -19.4851 179.9786 -8.2471 -177.0982 26.6502
State:	  7.634   6.733 -11.368  -0.580  0.766  0.277 167.894    131.89  144.01  -40.13  118.47   45.71  -67.06  -94.54  -31.58   45.26  179.61  173.15  -95.46  -88.11  -20.57  -58.46   39.83  -82.96   76.19 -135.44  -19.49  179.98   -8.25 -177.10   26.65

DOCKED: MODEL       58
DOCKED: USER    Run = 58
DOCKED: USER    DPF = D:/Protein_go_brrr/autodock/final/mut_D99N/IHP/dock.dpf
DOCKED: USER  
DOCKED: USER    Estimated Free Energy of Binding    =   +3.92 kcal/mol  [=(1)+(2)+(3)-(4)]
DOCKED: USER    
DOCKED: USER    (1) Final Intermolecular Energy     =   -3.24 kcal/mol
DOCKED: USER        vdW + Hbond + desolv Energy     =   -3.08 kcal/mol
DOCKED: USER        Electrostatic Energy            =   -0.16 kcal/mol
DOCKED: USER    (2) Final Total Internal Energy     =  -12.33 kcal/mol
DOCKED: USER    (3) Torsional Free Energy           =   +7.16 kcal/mol
DOCKED: USER    (4) Unbound System's Energy  [=(2)] =  -12.33 kcal/mol
DOCKED: USER    
DOCKED: USER    
DOCKED: USER    NEWDPF move IHP_ideal_opt.pdbqt
DOCKED: USER    NEWDPF about 0.035000 0.082000 -0.065000
DOCKED: USER    NEWDPF tran0 7.633738 6.733050 -11.368269
DOCKED: USER    NEWDPF quaternion0 -0.576602 0.762089 0.275011 0.105446
DOCKED: USER    NEWDPF axisangle0 -0.579835 0.766362 0.276553 167.894325
DOCKED: USER    NEWDPF quat0 -0.579835 0.766362 0.276553 167.894325
DOCKED: USER    NEWDPF dihe0 131.89 144.01 -40.13 118.47 45.71 -67.06 -94.54 -31.58 45.26 179.61 173.15 -95.46 -88.11 -20.57 -58.46 39.83 -82.96 76.19 -135.44 -19.49 179.98 -8.25 -177.10 26.65 
DOCKED: USER  keepresnum = 1 
DOCKED: USER  
DOCKED: REMARK  24 active torsions:
DOCKED: REMARK  status: ('A' for Active; 'I' for Inactive)
DOCKED: REMARK    1  A    between atoms: C_1  and  O_7 
DOCKED: REMARK    2  A    between atoms: C_2  and  O_12 
DOCKED: REMARK    3  A    between atoms: C_3  and  O_17 
DOCKED: REMARK    4  A    between atoms: C_4  and  O_22 
DOCKED: REMARK    5  A    between atoms: C_5  and  O_27 
DOCKED: REMARK    6  A    between atoms: C_6  and  O_32 
DOCKED: REMARK    7  A    between atoms: O_7  and  P_8 
DOCKED: REMARK    8  A    between atoms: P_8  and  O_10 
DOCKED: REMARK    9  A    between atoms: P_8  and  O_11 
DOCKED: REMARK   10  A    between atoms: O_12  and  P_13 
DOCKED: REMARK   11  A    between atoms: P_13  and  O_15 
DOCKED: REMARK   12  A    between atoms: P_13  and  O_16 
DOCKED: REMARK   13  A    between atoms: O_17  and  P_18 
DOCKED: REMARK   14  A    between atoms: P_18  and  O_20 
DOCKED: REMARK   15  A    between atoms: P_18  and  O_21 
DOCKED: REMARK   16  A    between atoms: O_22  and  P_23 
DOCKED: REMARK   17  A    between atoms: P_23  and  O_25 
DOCKED: REMARK   18  A    between atoms: P_23  and  O_26 
DOCKED: REMARK   19  A    between atoms: O_27  and  P_28 
DOCKED: REMARK   20  A    between atoms: P_28  and  O_30 
DOCKED: REMARK   21  A    between atoms: P_28  and  O_31 
DOCKED: REMARK   22  A    between atoms: O_32  and  P_33 
DOCKED: REMARK   23  A    between atoms: P_33  and  O_35 
DOCKED: REMARK   24  A    between atoms: P_33  and  O_36 
DOCKED: USER                              x       y       z     vdW  Elec       q    Type
DOCKED: USER                           _______ _______ _______ _____ _____    ______ ____
DOCKED: ROOT
DOCKED: ATOM      1  C   UNL d   1       7.593   5.631 -12.698 -0.02 +0.03    +0.194 C 
DOCKED: ATOM      2  C   UNL d   1       8.819   6.543 -12.633 -0.01 +0.02    +0.194 C 
DOCKED: ATOM      3  C   UNL d   1       8.438   7.981 -12.277 +0.00 +0.02    +0.194 C 
DOCKED: ATOM      4  C   UNL d   1       7.577   8.082 -11.020 -0.02 +0.04    +0.194 C 
DOCKED: ATOM      5  C   UNL d   1       6.405   7.108 -10.991 -0.05 +0.04    +0.194 C 
DOCKED: ATOM      6  C   UNL d   1       6.775   5.682 -11.407 -0.07 +0.03    +0.194 C 
DOCKED: ENDROOT
DOCKED: BRANCH   1   7
DOCKED: ATOM      7  O   UNL d   1       8.046   4.285 -12.863 -0.04 -0.04    -0.278 OA
DOCKED: BRANCH   7   8
DOCKED: ATOM      8  P   UNL d   1       8.049   3.325 -11.586 -0.15 +0.08    +0.473 P 
DOCKED: ATOM      9  O   UNL d   1       8.410   3.983 -10.302 -0.18 -0.06    -0.228 OA
DOCKED: BRANCH   8  10
DOCKED: ATOM     10  O   UNL d   1       6.586   2.688 -11.577 -0.13 -0.04    -0.303 OA
DOCKED: ATOM     11  H   UNL d   1       5.965   3.292 -12.025 +0.10 +0.04    +0.222 HD
DOCKED: ENDBRANCH   8  10
DOCKED: BRANCH   8  12
DOCKED: ATOM     12  O   UNL d   1       8.949   2.084 -12.006 -0.22 -0.05    -0.303 OA
DOCKED: ATOM     13  H   UNL d   1       9.871   2.145 -11.670 +0.08 +0.04    +0.222 HD
DOCKED: ENDBRANCH   8  12
DOCKED: ENDBRANCH   7   8
DOCKED: ENDBRANCH   1   7
DOCKED: BRANCH   2  14
DOCKED: ATOM     14  O   UNL d   1       9.717   6.047 -11.631 -0.01 -0.03    -0.278 OA
DOCKED: BRANCH  14  15
DOCKED: ATOM     15  P   UNL d   1      11.111   5.454 -12.150 -0.00 +0.05    +0.473 P 
DOCKED: ATOM     16  O   UNL d   1      11.723   6.121 -13.342 -0.00 -0.02    -0.228 OA
DOCKED: BRANCH  15  17
DOCKED: ATOM     17  O   UNL d   1      12.053   5.500 -10.866 -0.01 -0.03    -0.303 OA
DOCKED: ATOM     18  H   UNL d   1      12.940   5.839 -11.092 +0.01 +0.02    +0.222 HD
DOCKED: ENDBRANCH  15  17
DOCKED: BRANCH  15  19
DOCKED: ATOM     19  O   UNL d   1      10.848   3.893 -12.297 -0.03 -0.04    -0.303 OA
DOCKED: ATOM     20  H   UNL d   1      10.118   3.707 -12.917 +0.04 +0.03    +0.222 HD
DOCKED: ENDBRANCH  15  19
DOCKED: ENDBRANCH  14  15
DOCKED: ENDBRANCH   2  14
DOCKED: BRANCH   6  21
DOCKED: ATOM     21  O   UNL d   1       5.551   4.997 -11.660 -0.07 -0.05    -0.278 OA
DOCKED: BRANCH  21  22
DOCKED: ATOM     22  P   UNL d   1       4.768   5.252 -13.027 -0.04 +0.07    +0.473 P 
DOCKED: ATOM     23  O   UNL d   1       4.926   6.577 -13.692 -0.02 -0.03    -0.228 OA
DOCKED: BRANCH  22  24
DOCKED: ATOM     24  O   UNL d   1       5.228   4.006 -13.903 -0.05 -0.05    -0.303 OA
DOCKED: ATOM     25  H   UNL d   1       6.067   3.649 -13.515 +0.06 +0.04    +0.222 HD
DOCKED: ENDBRANCH  22  24
DOCKED: BRANCH  22  26
DOCKED: ATOM     26  O   UNL d   1       3.271   4.840 -12.626 -0.33 -0.06    -0.303 OA
DOCKED: ATOM     27  H   UNL d   1       2.685   5.617 -12.731 +0.04 +0.04    +0.222 HD
DOCKED: ENDBRANCH  22  26
DOCKED: ENDBRANCH  21  22
DOCKED: ENDBRANCH   6  21
DOCKED: BRANCH   3  28
DOCKED: ATOM     28  O   UNL d   1       9.638   8.679 -11.968 +0.00 -0.03    -0.278 OA
DOCKED: BRANCH  28  29
DOCKED: ATOM     29  P   UNL d   1      10.288   9.671 -13.031 +0.00 +0.03    +0.473 P 
DOCKED: ATOM     30  O   UNL d   1       9.415  10.048 -14.173 +0.00 -0.01    -0.228 OA
DOCKED: BRANCH  29  31
DOCKED: ATOM     31  O   UNL d   1      10.761  10.851 -12.059 +0.00 -0.02    -0.303 OA
DOCKED: ATOM     32  H   UNL d   1      10.045  11.026 -11.406 +0.00 +0.02    +0.222 HD
DOCKED: ENDBRANCH  29  31
DOCKED: BRANCH  29  33
DOCKED: ATOM     33  O   UNL d   1      11.655   8.935 -13.383 +0.00 -0.02    -0.303 OA
DOCKED: ATOM     34  H   UNL d   1      11.541   7.963 -13.246 +0.00 +0.01    +0.222 HD
DOCKED: ENDBRANCH  29  33
DOCKED: ENDBRANCH  28  29
DOCKED: ENDBRANCH   3  28
DOCKED: BRANCH   5  35
DOCKED: ATOM     35  O   UNL d   1       5.982   7.052  -9.631 -0.15 -0.11    -0.278 OA
DOCKED: BRANCH  35  36
DOCKED: ATOM     36  P   UNL d   1       7.054   6.884  -8.461 -0.15 +0.24    +0.473 P 
DOCKED: ATOM     37  O   UNL d   1       8.193   5.962  -8.758 -0.17 -0.06    -0.228 OA
DOCKED: BRANCH  36  38
DOCKED: ATOM     38  O   UNL d   1       7.485   8.393  -8.195 -0.11 -0.23    -0.303 OA
DOCKED: ATOM     39  H   UNL d   1       7.326   8.921  -9.007 +0.04 +0.12    +0.222 HD
DOCKED: ENDBRANCH  36  38
DOCKED: BRANCH  36  40
DOCKED: ATOM     40  O   UNL d   1       6.139   6.521  -7.212 -0.90 -0.22    -0.303 OA
DOCKED: ATOM     41  H   UNL d   1       6.534   5.805  -6.667 -0.46 +0.03    +0.222 HD
DOCKED: ENDBRANCH  36  40
DOCKED: ENDBRANCH  35  36
DOCKED: ENDBRANCH   5  35
DOCKED: BRANCH   4  42
DOCKED: ATOM     42  O   UNL d   1       7.026   9.403 -10.999 -0.02 -0.06    -0.278 OA
DOCKED: BRANCH  42  43
DOCKED: ATOM     43  P   UNL d   1       7.895  10.591 -10.384 +0.00 +0.09    +0.473 P 
DOCKED: ATOM     44  O   UNL d   1       8.194  11.752 -11.268 +0.00 -0.02    -0.228 OA
DOCKED: BRANCH  43  45
DOCKED: ATOM     45  O   UNL d   1       7.087  10.967  -9.066 -0.08 -0.13    -0.303 OA
DOCKED: ATOM     46  H   UNL d   1       7.496  10.571  -8.270 +0.02 +0.14    +0.222 HD
DOCKED: ENDBRANCH  43  45
DOCKED: BRANCH  43  47
DOCKED: ATOM     47  O   UNL d   1       9.172   9.835  -9.779 -0.00 -0.06    -0.303 OA
DOCKED: ATOM     48  H   UNL d   1       9.828   9.687 -10.492 +0.01 +0.03    +0.222 HD
DOCKED: ENDBRANCH  43  47
DOCKED: ENDBRANCH  42  43
DOCKED: ENDBRANCH   4  42
DOCKED: TORSDOF 24
DOCKED: TER
DOCKED: ENDMDL
________________________________________________________________________________


	BEGINNING GENETIC ALGORITHM DOCKING 59 of 100
Run: 59 Seed: 125453306 1791743089 [ Run 59 of 100 GA/GALS ]
Beginning LAMARCKIAN GENETIC ALGORITHM (LGA), with a maximum of 25000000 energy evaluations.

Final-Value: -19.672


	FINAL GENETIC ALGORITHM DOCKED STATE
	_______________________________________________


Detailed state:  trans 7.247 1.034 -14.101 quatxyzw -0.750616 0.509099 0.275876 -0.318254 center 0.035 0.082 -0.065 ntor 24 -177.5140 -41.7348 101.5795 119.6779 88.4047 101.7850 -147.1936 -112.7502 74.0066 -3.4502 -25.7223 -131.3879 -122.3208 97.0974 41.0850 -132.6107 153.5323 -63.1270 43.8659 -3.8475 165.6096 -10.2763 0.0350 159.7261
State:	  7.247   1.034 -14.101  -0.792  0.537  0.291 -142.885   -177.51  -41.73  101.58  119.68   88.40  101.78 -147.19 -112.75   74.01   -3.45  -25.72 -131.39 -122.32   97.10   41.08 -132.61  153.53  -63.13   43.87   -3.85  165.61  -10.28    0.04  159.73

DOCKED: MODEL       59
DOCKED: USER    Run = 59
DOCKED: USER    DPF = D:/Protein_go_brrr/autodock/final/mut_D99N/IHP/dock.dpf
DOCKED: USER  
DOCKED: USER    Estimated Free Energy of Binding    =   +3.29 kcal/mol  [=(1)+(2)+(3)-(4)]
DOCKED: USER    
DOCKED: USER    (1) Final Intermolecular Energy     =   -3.87 kcal/mol
DOCKED: USER        vdW + Hbond + desolv Energy     =   -3.83 kcal/mol
DOCKED: USER        Electrostatic Energy            =   -0.03 kcal/mol
DOCKED: USER    (2) Final Total Internal Energy     =  -15.81 kcal/mol
DOCKED: USER    (3) Torsional Free Energy           =   +7.16 kcal/mol
DOCKED: USER    (4) Unbound System's Energy  [=(2)] =  -15.81 kcal/mol
DOCKED: USER    
DOCKED: USER    
DOCKED: USER    NEWDPF move IHP_ideal_opt.pdbqt
DOCKED: USER    NEWDPF about 0.035000 0.082000 -0.065000
DOCKED: USER    NEWDPF tran0 7.246959 1.034039 -14.101452
DOCKED: USER    NEWDPF quaternion0 -0.750616 0.509099 0.275876 -0.318254
DOCKED: USER    NEWDPF axisangle0 -0.791785 0.537021 0.291006 -142.885302
DOCKED: USER    NEWDPF quat0 -0.791785 0.537021 0.291006 -142.885302
DOCKED: USER    NEWDPF dihe0 -177.51 -41.73 101.58 119.68 88.40 101.78 -147.19 -112.75 74.01 -3.45 -25.72 -131.39 -122.32 97.10 41.08 -132.61 153.53 -63.13 43.87 -3.85 165.61 -10.28 0.04 159.73 
DOCKED: USER  keepresnum = 1 
DOCKED: USER  
DOCKED: REMARK  24 active torsions:
DOCKED: REMARK  status: ('A' for Active; 'I' for Inactive)
DOCKED: REMARK    1  A    between atoms: C_1  and  O_7 
DOCKED: REMARK    2  A    between atoms: C_2  and  O_12 
DOCKED: REMARK    3  A    between atoms: C_3  and  O_17 
DOCKED: REMARK    4  A    between atoms: C_4  and  O_22 
DOCKED: REMARK    5  A    between atoms: C_5  and  O_27 
DOCKED: REMARK    6  A    between atoms: C_6  and  O_32 
DOCKED: REMARK    7  A    between atoms: O_7  and  P_8 
DOCKED: REMARK    8  A    between atoms: P_8  and  O_10 
DOCKED: REMARK    9  A    between atoms: P_8  and  O_11 
DOCKED: REMARK   10  A    between atoms: O_12  and  P_13 
DOCKED: REMARK   11  A    between atoms: P_13  and  O_15 
DOCKED: REMARK   12  A    between atoms: P_13  and  O_16 
DOCKED: REMARK   13  A    between atoms: O_17  and  P_18 
DOCKED: REMARK   14  A    between atoms: P_18  and  O_20 
DOCKED: REMARK   15  A    between atoms: P_18  and  O_21 
DOCKED: REMARK   16  A    between atoms: O_22  and  P_23 
DOCKED: REMARK   17  A    between atoms: P_23  and  O_25 
DOCKED: REMARK   18  A    between atoms: P_23  and  O_26 
DOCKED: REMARK   19  A    between atoms: O_27  and  P_28 
DOCKED: REMARK   20  A    between atoms: P_28  and  O_30 
DOCKED: REMARK   21  A    between atoms: P_28  and  O_31 
DOCKED: REMARK   22  A    between atoms: O_32  and  P_33 
DOCKED: REMARK   23  A    between atoms: P_33  and  O_35 
DOCKED: REMARK   24  A    between atoms: P_33  and  O_36 
DOCKED: USER                              x       y       z     vdW  Elec       q    Type
DOCKED: USER                           _______ _______ _______ _____ _____    ______ ____
DOCKED: ROOT
DOCKED: ATOM      1  C   UNL d   1       8.423   1.144 -15.362 -0.11 +0.05    +0.194 C 
DOCKED: ATOM      2  C   UNL d   1       8.801   1.823 -14.044 -0.13 +0.04    +0.194 C 
DOCKED: ATOM      3  C   UNL d   1       7.626   2.604 -13.452 -0.14 +0.03    +0.194 C 
DOCKED: ATOM      4  C   UNL d   1       6.352   1.772 -13.328 -0.24 +0.04    +0.194 C 
DOCKED: ATOM      5  C   UNL d   1       6.000   0.985 -14.584 -0.20 +0.05    +0.194 C 
DOCKED: ATOM      6  C   UNL d   1       7.189   0.254 -15.211 -0.12 +0.06    +0.194 C 
DOCKED: ENDROOT
DOCKED: BRANCH   1   7
DOCKED: ATOM      7  O   UNL d   1       9.509   0.303 -15.757 -0.10 -0.12    -0.278 OA
DOCKED: BRANCH   7   8
DOCKED: ATOM      8  P   UNL d   1      10.784   0.980 -16.442 -0.03 +0.13    +0.473 P 
DOCKED: ATOM      9  O   UNL d   1      10.560   1.496 -17.820 -0.01 -0.04    -0.228 OA
DOCKED: BRANCH   8  10
DOCKED: ATOM     10  O   UNL d   1      11.220   2.115 -15.410 -0.02 -0.05    -0.303 OA
DOCKED: ATOM     11  H   UNL d   1      10.908   1.881 -14.516 +0.04 +0.04    +0.222 HD
DOCKED: ENDBRANCH   8  10
DOCKED: BRANCH   8  12
DOCKED: ATOM     12  O   UNL d   1      11.953  -0.083 -16.281 -0.06 -0.12    -0.303 OA
DOCKED: ATOM     13  H   UNL d   1      12.434  -0.001 -15.427 +0.04 +0.07    +0.222 HD
DOCKED: ENDBRANCH   8  12
DOCKED: ENDBRANCH   7   8
DOCKED: ENDBRANCH   1   7
DOCKED: BRANCH   2  14
DOCKED: ATOM     14  O   UNL d   1       9.205   0.822 -13.102 -0.15 -0.07    -0.278 OA
DOCKED: BRANCH  14  15
DOCKED: ATOM     15  P   UNL d   1      10.622   1.041 -12.388 -0.20 +0.08    +0.473 P 
DOCKED: ATOM     16  O   UNL d   1      10.789   0.439 -11.029 -0.35 -0.02    -0.228 OA
DOCKED: BRANCH  15  17
DOCKED: ATOM     17  O   UNL d   1      11.678   0.486 -13.444 -0.13 -0.07    -0.303 OA
DOCKED: ATOM     18  H   UNL d   1      11.241   0.241 -14.282 +0.06 +0.08    +0.222 HD
DOCKED: ENDBRANCH  15  17
DOCKED: BRANCH  15  19
DOCKED: ATOM     19  O   UNL d   1      10.873   2.609 -12.479 -0.06 -0.04    -0.303 OA
DOCKED: ATOM     20  H   UNL d   1      10.172   3.114 -12.026 +0.06 +0.03    +0.222 HD
DOCKED: ENDBRANCH  15  19
DOCKED: ENDBRANCH  14  15
DOCKED: ENDBRANCH   2  14
DOCKED: BRANCH   6  21
DOCKED: ATOM     21  O   UNL d   1       6.789  -0.132 -16.524 -0.13 -0.08    -0.278 OA
DOCKED: BRANCH  21  22
DOCKED: ATOM     22  P   UNL d   1       6.433   0.986 -17.605 -0.00 +0.10    +0.473 P 
DOCKED: ATOM     23  O   UNL d   1       7.547   1.804 -18.166 -0.01 -0.04    -0.228 OA
DOCKED: BRANCH  22  24
DOCKED: ATOM     24  O   UNL d   1       5.611   0.150 -18.681 -0.05 -0.07    -0.303 OA
DOCKED: ATOM     25  H   UNL d   1       5.254  -0.660 -18.234 +0.08 +0.07    +0.222 HD
DOCKED: ENDBRANCH  22  24
DOCKED: BRANCH  22  26
DOCKED: ATOM     26  O   UNL d   1       5.270   1.800 -16.860 -0.02 -0.06    -0.303 OA
DOCKED: ATOM     27  H   UNL d   1       4.456   1.257 -16.845 +0.07 +0.05    +0.222 HD
DOCKED: ENDBRANCH  22  26
DOCKED: ENDBRANCH  21  22
DOCKED: ENDBRANCH   6  21
DOCKED: BRANCH   3  28
DOCKED: ATOM     28  O   UNL d   1       7.975   2.960 -12.120 -0.16 -0.04    -0.278 OA
DOCKED: BRANCH  28  29
DOCKED: ATOM     29  P   UNL d   1       8.495   4.428 -11.790 -0.05 +0.07    +0.473 P 
DOCKED: ATOM     30  O   UNL d   1       9.282   4.563 -10.537 -0.12 -0.04    -0.228 OA
DOCKED: BRANCH  29  31
DOCKED: ATOM     31  O   UNL d   1       9.247   4.773 -13.160 -0.01 -0.04    -0.303 OA
DOCKED: ATOM     32  H   UNL d   1      10.204   4.566 -13.054 +0.03 +0.02    +0.222 HD
DOCKED: ENDBRANCH  29  31
DOCKED: BRANCH  29  33
DOCKED: ATOM     33  O   UNL d   1       7.159   5.287 -11.896 -0.04 -0.05    -0.303 OA
DOCKED: ATOM     34  H   UNL d   1       6.738   5.120 -12.775 +0.05 +0.03    +0.222 HD
DOCKED: ENDBRANCH  29  33
DOCKED: ENDBRANCH  28  29
DOCKED: ENDBRANCH   3  28
DOCKED: BRANCH   5  35
DOCKED: ATOM     35  O   UNL d   1       5.066  -0.010 -14.169 -0.29 -0.07    -0.278 OA
DOCKED: BRANCH  35  36
DOCKED: ATOM     36  P   UNL d   1       3.701  -0.216 -14.968 -0.28 +0.15    +0.473 P 
DOCKED: ATOM     37  O   UNL d   1       2.632  -0.964 -14.236 -0.38 -0.09    -0.228 OA
DOCKED: BRANCH  36  38
DOCKED: ATOM     38  O   UNL d   1       3.313   1.282 -15.343 -0.11 -0.09    -0.303 OA
DOCKED: ATOM     39  H   UNL d   1       4.029   1.883 -15.045 +0.09 +0.05    +0.222 HD
DOCKED: ENDBRANCH  36  38
DOCKED: BRANCH  36  40
DOCKED: ATOM     40  O   UNL d   1       4.203  -0.838 -16.343 -0.63 -0.12    -0.303 OA
DOCKED: ATOM     41  H   UNL d   1       4.983  -0.355 -16.698 +0.10 +0.07    +0.222 HD
DOCKED: ENDBRANCH  36  40
DOCKED: ENDBRANCH  35  36
DOCKED: ENDBRANCH   5  35
DOCKED: BRANCH   4  42
DOCKED: ATOM     42  O   UNL d   1       5.279   2.689 -13.090 -0.01 -0.05    -0.278 OA
DOCKED: BRANCH  42  43
DOCKED: ATOM     43  P   UNL d   1       5.140   3.972 -14.026 -0.03 +0.08    +0.473 P 
DOCKED: ATOM     44  O   UNL d   1       6.329   4.368 -14.831 -0.02 -0.03    -0.228 OA
DOCKED: BRANCH  43  45
DOCKED: ATOM     45  O   UNL d   1       3.850   3.633 -14.895 -0.08 -0.07    -0.303 OA
DOCKED: ATOM     46  H   UNL d   1       4.094   3.283 -15.775 +0.05 +0.05    +0.222 HD
DOCKED: ENDBRANCH  43  45
DOCKED: BRANCH  43  47
DOCKED: ATOM     47  O   UNL d   1       4.575   5.093 -13.029 -0.07 -0.05    -0.303 OA
DOCKED: ATOM     48  H   UNL d   1       5.104   5.089 -12.205 +0.07 +0.04    +0.222 HD
DOCKED: ENDBRANCH  43  47
DOCKED: ENDBRANCH  42  43
DOCKED: ENDBRANCH   4  42
DOCKED: TORSDOF 24
DOCKED: TER
DOCKED: ENDMDL
________________________________________________________________________________


	BEGINNING GENETIC ALGORITHM DOCKING 60 of 100
Run: 60 Seed: 224978133 1150491035 [ Run 60 of 100 GA/GALS ]
Beginning LAMARCKIAN GENETIC ALGORITHM (LGA), with a maximum of 25000000 energy evaluations.

Final-Value: -18.238


	FINAL GENETIC ALGORITHM DOCKED STATE
	_______________________________________________


Detailed state:  trans -9.675 15.245 12.509 quatxyzw 0.769742 -0.501807 0.120202 -0.375817 center 0.035 0.082 -0.065 ntor 24 179.9186 158.6050 -171.6221 -32.0795 105.1036 -180.0000 45.9547 -88.8487 125.7624 -19.3826 99.0028 171.1319 -54.1378 -180.0000 44.9966 -125.5196 29.9903 -126.2984 -26.5224 16.5836 -6.4561 9.9845 167.6559 -7.6360
State:	 -9.675  15.245  12.509   0.831 -0.542  0.130 -135.850    179.92  158.60 -171.62  -32.08  105.10 -180.00   45.95  -88.85  125.76  -19.38   99.00  171.13  -54.14 -180.00   45.00 -125.52   29.99 -126.30  -26.52   16.58   -6.46    9.98  167.66   -7.64

DOCKED: MODEL       60
DOCKED: USER    Run = 60
DOCKED: USER    DPF = D:/Protein_go_brrr/autodock/final/mut_D99N/IHP/dock.dpf
DOCKED: USER  
DOCKED: USER    Estimated Free Energy of Binding    =   +1.00 kcal/mol  [=(1)+(2)+(3)-(4)]
DOCKED: USER    
DOCKED: USER    (1) Final Intermolecular Energy     =   -6.16 kcal/mol
DOCKED: USER        vdW + Hbond + desolv Energy     =   -5.36 kcal/mol
DOCKED: USER        Electrostatic Energy            =   -0.80 kcal/mol
DOCKED: USER    (2) Final Total Internal Energy     =  -12.08 kcal/mol
DOCKED: USER    (3) Torsional Free Energy           =   +7.16 kcal/mol
DOCKED: USER    (4) Unbound System's Energy  [=(2)] =  -12.08 kcal/mol
DOCKED: USER    
DOCKED: USER    
DOCKED: USER    NEWDPF move IHP_ideal_opt.pdbqt
DOCKED: USER    NEWDPF about 0.035000 0.082000 -0.065000
DOCKED: USER    NEWDPF tran0 -9.674666 15.244569 12.509095
DOCKED: USER    NEWDPF quaternion0 0.769742 -0.501807 0.120202 -0.375817
DOCKED: USER    NEWDPF axisangle0 0.830633 -0.541502 0.129711 -135.850365
DOCKED: USER    NEWDPF quat0 0.830633 -0.541502 0.129711 -135.850365
DOCKED: USER    NEWDPF dihe0 179.92 158.60 -171.62 -32.08 105.10 -180.00 45.95 -88.85 125.76 -19.38 99.00 171.13 -54.14 -180.00 45.00 -125.52 29.99 -126.30 -26.52 16.58 -6.46 9.98 167.66 -7.64 
DOCKED: USER  keepresnum = 1 
DOCKED: USER  
DOCKED: REMARK  24 active torsions:
DOCKED: REMARK  status: ('A' for Active; 'I' for Inactive)
DOCKED: REMARK    1  A    between atoms: C_1  and  O_7 
DOCKED: REMARK    2  A    between atoms: C_2  and  O_12 
DOCKED: REMARK    3  A    between atoms: C_3  and  O_17 
DOCKED: REMARK    4  A    between atoms: C_4  and  O_22 
DOCKED: REMARK    5  A    between atoms: C_5  and  O_27 
DOCKED: REMARK    6  A    between atoms: C_6  and  O_32 
DOCKED: REMARK    7  A    between atoms: O_7  and  P_8 
DOCKED: REMARK    8  A    between atoms: P_8  and  O_10 
DOCKED: REMARK    9  A    between atoms: P_8  and  O_11 
DOCKED: REMARK   10  A    between atoms: O_12  and  P_13 
DOCKED: REMARK   11  A    between atoms: P_13  and  O_15 
DOCKED: REMARK   12  A    between atoms: P_13  and  O_16 
DOCKED: REMARK   13  A    between atoms: O_17  and  P_18 
DOCKED: REMARK   14  A    between atoms: P_18  and  O_20 
DOCKED: REMARK   15  A    between atoms: P_18  and  O_21 
DOCKED: REMARK   16  A    between atoms: O_22  and  P_23 
DOCKED: REMARK   17  A    between atoms: P_23  and  O_25 
DOCKED: REMARK   18  A    between atoms: P_23  and  O_26 
DOCKED: REMARK   19  A    between atoms: O_27  and  P_28 
DOCKED: REMARK   20  A    between atoms: P_28  and  O_30 
DOCKED: REMARK   21  A    between atoms: P_28  and  O_31 
DOCKED: REMARK   22  A    between atoms: O_32  and  P_33 
DOCKED: REMARK   23  A    between atoms: P_33  and  O_35 
DOCKED: REMARK   24  A    between atoms: P_33  and  O_36 
DOCKED: USER                              x       y       z     vdW  Elec       q    Type
DOCKED: USER                           _______ _______ _______ _____ _____    ______ ____
DOCKED: ROOT
DOCKED: ATOM      1  C   UNL d   1      -8.475  14.027  12.262 -0.20 -0.05    +0.194 C 
DOCKED: ATOM      2  C   UNL d   1      -8.293  15.308  11.446 -0.15 -0.06    +0.194 C 
DOCKED: ATOM      3  C   UNL d   1      -9.619  15.798  10.860 -0.09 -0.14    +0.194 C 
DOCKED: ATOM      4  C   UNL d   1     -10.726  15.929  11.902 -0.09 -0.13    +0.194 C 
DOCKED: ATOM      5  C   UNL d   1     -10.867  14.718  12.815 -0.12 -0.09    +0.194 C 
DOCKED: ATOM      6  C   UNL d   1      -9.535  14.190  13.352 -0.14 -0.05    +0.194 C 
DOCKED: ENDROOT
DOCKED: BRANCH   1   7
DOCKED: ATOM      7  O   UNL d   1      -7.236  13.733  12.913 -0.11 +0.06    -0.278 OA
DOCKED: BRANCH   7   8
DOCKED: ATOM      8  P   UNL d   1      -6.865  12.203  13.185 -0.25 -0.12    +0.473 P 
DOCKED: ATOM      9  O   UNL d   1      -7.902  11.220  12.771 -0.47 +0.06    -0.228 OA
DOCKED: BRANCH   8  10
DOCKED: ATOM     10  O   UNL d   1      -5.473  12.003  12.430 -0.29 +0.08    -0.303 OA
DOCKED: ATOM     11  H   UNL d   1      -5.038  12.868  12.313 -0.30 -0.09    +0.222 HD
DOCKED: ENDBRANCH   8  10
DOCKED: BRANCH   8  12
DOCKED: ATOM     12  O   UNL d   1      -6.427  12.150  14.711 -0.39 +0.09    -0.303 OA
DOCKED: ATOM     13  H   UNL d   1      -7.047  11.632  15.272 -0.37 -0.12    +0.222 HD
DOCKED: ENDBRANCH   8  12
DOCKED: ENDBRANCH   7   8
DOCKED: ENDBRANCH   1   7
DOCKED: BRANCH   2  14
DOCKED: ATOM     14  O   UNL d   1      -7.764  16.332  12.298 -0.03 +0.06    -0.278 OA
DOCKED: BRANCH  14  15
DOCKED: ATOM     15  P   UNL d   1      -6.800  17.409  11.608 +0.01 -0.07    +0.473 P 
DOCKED: ATOM     16  O   UNL d   1      -5.440  17.575  12.209 -0.02 +0.03    -0.228 OA
DOCKED: BRANCH  15  17
DOCKED: ATOM     17  O   UNL d   1      -6.750  16.961  10.080 -0.05 +0.04    -0.303 OA
DOCKED: ATOM     18  H   UNL d   1      -7.432  17.423   9.555 +0.06 -0.03    +0.222 HD
DOCKED: ENDBRANCH  15  17
DOCKED: BRANCH  15  19
DOCKED: ATOM     19  O   UNL d   1      -7.679  18.732  11.523 -0.00 +0.04    -0.303 OA
DOCKED: ATOM     20  H   UNL d   1      -8.158  18.793  10.677 +0.02 -0.03    +0.222 HD
DOCKED: ENDBRANCH  15  19
DOCKED: ENDBRANCH  14  15
DOCKED: ENDBRANCH   2  14
DOCKED: BRANCH   6  21
DOCKED: ATOM     21  O   UNL d   1      -9.790  12.892  13.885 -0.19 +0.07    -0.278 OA
DOCKED: BRANCH  21  22
DOCKED: ATOM     22  P   UNL d   1      -9.764  12.664  15.463 -0.12 -0.12    +0.473 P 
DOCKED: ATOM     23  O   UNL d   1     -10.920  13.158  16.266 -0.06 +0.04    -0.228 OA
DOCKED: BRANCH  22  24
DOCKED: ATOM     24  O   UNL d   1      -9.504  11.097  15.562 -0.03 +0.12    -0.303 OA
DOCKED: ATOM     25  H   UNL d   1      -8.856  10.847  14.854 -0.39 -0.13    +0.222 HD
DOCKED: ENDBRANCH  22  24
DOCKED: BRANCH  22  26
DOCKED: ATOM     26  O   UNL d   1      -8.329  13.263  15.854 -0.09 +0.07    -0.303 OA
DOCKED: ATOM     27  H   UNL d   1      -7.926  13.675  15.063 +0.09 -0.05    +0.222 HD
DOCKED: ENDBRANCH  22  26
DOCKED: ENDBRANCH  21  22
DOCKED: ENDBRANCH   6  21
DOCKED: BRANCH   3  28
DOCKED: ATOM     28  O   UNL d   1      -9.408  17.115  10.366 -0.09 +0.14    -0.278 OA
DOCKED: BRANCH  28  29
DOCKED: ATOM     29  P   UNL d   1      -9.654  17.446   8.828 -0.07 -0.27    +0.473 P 
DOCKED: ATOM     30  O   UNL d   1      -8.835  18.553   8.271 -0.05 +0.04    -0.228 OA
DOCKED: BRANCH  29  31
DOCKED: ATOM     31  O   UNL d   1      -9.441  15.993   8.191 -0.15 +0.26    -0.303 OA
DOCKED: ATOM     32  H   UNL d   1     -10.323  15.575   8.060 -0.52 -0.52    +0.222 HD
DOCKED: ENDBRANCH  29  31
DOCKED: BRANCH  29  33
DOCKED: ATOM     33  O   UNL d   1     -11.236  17.624   8.774 -0.05 +0.30    -0.303 OA
DOCKED: ATOM     34  H   UNL d   1     -11.647  17.054   9.469 -0.27 -0.36    +0.222 HD
DOCKED: ENDBRANCH  29  33
DOCKED: ENDBRANCH  28  29
DOCKED: ENDBRANCH   3  28
DOCKED: BRANCH   5  35
DOCKED: ATOM     35  O   UNL d   1     -11.625  15.164  13.937 -0.06 +0.09    -0.278 OA
DOCKED: BRANCH  35  36
DOCKED: ATOM     36  P   UNL d   1     -11.063  16.322  14.879 +0.00 -0.09    +0.473 P 
DOCKED: ATOM     37  O   UNL d   1     -11.119  17.703  14.306 -0.01 +0.04    -0.228 OA
DOCKED: BRANCH  36  38
DOCKED: ATOM     38  O   UNL d   1     -11.936  16.124  16.196 -0.00 +0.04    -0.303 OA
DOCKED: ATOM     39  H   UNL d   1     -11.833  15.201  16.514 +0.02 -0.03    +0.222 HD
DOCKED: ENDBRANCH  36  38
DOCKED: BRANCH  36  40
DOCKED: ATOM     40  O   UNL d   1      -9.629  15.766  15.283 -0.00 +0.05    -0.303 OA
DOCKED: ATOM     41  H   UNL d   1      -9.693  14.913  15.769 +0.03 -0.04    +0.222 HD
DOCKED: ENDBRANCH  36  40
DOCKED: ENDBRANCH  35  36
DOCKED: ENDBRANCH   5  35
DOCKED: BRANCH   4  42
DOCKED: ATOM     42  O   UNL d   1     -11.958  16.061  11.185 +0.03 +0.36    -0.278 OA
DOCKED: BRANCH  42  43
DOCKED: ATOM     43  P   UNL d   1     -12.820  17.390  11.369 -0.06 -0.31    +0.473 P 
DOCKED: ATOM     44  O   UNL d   1     -13.681  17.487  12.581 -0.03 +0.09    -0.228 OA
DOCKED: BRANCH  43  45
DOCKED: ATOM     45  O   UNL d   1     -11.722  18.537  11.258 -0.02 +0.12    -0.303 OA
DOCKED: ATOM     46  H   UNL d   1     -10.953  18.245  10.729 +0.02 -0.10    +0.222 HD
DOCKED: ENDBRANCH  43  45
DOCKED: BRANCH  43  47
DOCKED: ATOM     47  O   UNL d   1     -13.582  17.531   9.966 -0.08 +0.25    -0.303 OA
DOCKED: ATOM     48  H   UNL d   1     -13.210  16.884   9.331 -0.23 -0.34    +0.222 HD
DOCKED: ENDBRANCH  43  47
DOCKED: ENDBRANCH  42  43
DOCKED: ENDBRANCH   4  42
DOCKED: TORSDOF 24
DOCKED: TER
DOCKED: ENDMDL
________________________________________________________________________________


	BEGINNING GENETIC ALGORITHM DOCKING 61 of 100
Run: 61 Seed: 1304642904 1654469845 [ Run 61 of 100 GA/GALS ]
Beginning LAMARCKIAN GENETIC ALGORITHM (LGA), with a maximum of 25000000 energy evaluations.

Final-Value: -17.076


	FINAL GENETIC ALGORITHM DOCKED STATE
	_______________________________________________


Detailed state:  trans 18.506 -11.103 -15.874 quatxyzw -0.891643 -0.058495 0.164802 -0.417603 center 0.035 0.082 -0.065 ntor 24 26.5778 15.6245 148.0708 11.8618 15.2390 171.8354 -14.3472 -158.2381 103.7226 96.6715 54.0343 149.2161 170.9030 -180.0000 177.5337 115.1291 119.3914 -24.4091 52.1829 9.0155 -20.0639 -6.8841 -6.9019 167.2461
State:	 18.506 -11.103 -15.874  -0.981 -0.064  0.181 -130.633     26.58   15.62  148.07   11.86   15.24  171.84  -14.35 -158.24  103.72   96.67   54.03  149.22  170.90 -180.00  177.53  115.13  119.39  -24.41   52.18    9.02  -20.06   -6.88   -6.90  167.25

DOCKED: MODEL       61
DOCKED: USER    Run = 61
DOCKED: USER    DPF = D:/Protein_go_brrr/autodock/final/mut_D99N/IHP/dock.dpf
DOCKED: USER  
DOCKED: USER    Estimated Free Energy of Binding    =   +4.41 kcal/mol  [=(1)+(2)+(3)-(4)]
DOCKED: USER    
DOCKED: USER    (1) Final Intermolecular Energy     =   -2.75 kcal/mol
DOCKED: USER        vdW + Hbond + desolv Energy     =   -2.59 kcal/mol
DOCKED: USER        Electrostatic Energy            =   -0.16 kcal/mol
DOCKED: USER    (2) Final Total Internal Energy     =  -14.33 kcal/mol
DOCKED: USER    (3) Torsional Free Energy           =   +7.16 kcal/mol
DOCKED: USER    (4) Unbound System's Energy  [=(2)] =  -14.33 kcal/mol
DOCKED: USER    
DOCKED: USER    
DOCKED: USER    NEWDPF move IHP_ideal_opt.pdbqt
DOCKED: USER    NEWDPF about 0.035000 0.082000 -0.065000
DOCKED: USER    NEWDPF tran0 18.505692 -11.102843 -15.874119
DOCKED: USER    NEWDPF quaternion0 -0.891643 -0.058495 0.164802 -0.417603
DOCKED: USER    NEWDPF axisangle0 -0.981305 -0.064377 0.181375 -130.633354
DOCKED: USER    NEWDPF quat0 -0.981305 -0.064377 0.181375 -130.633354
DOCKED: USER    NEWDPF dihe0 26.58 15.62 148.07 11.86 15.24 171.84 -14.35 -158.24 103.72 96.67 54.03 149.22 170.90 -180.00 177.53 115.13 119.39 -24.41 52.18 9.02 -20.06 -6.88 -6.90 167.25 
DOCKED: USER  keepresnum = 1 
DOCKED: USER  
DOCKED: REMARK  24 active torsions:
DOCKED: REMARK  status: ('A' for Active; 'I' for Inactive)
DOCKED: REMARK    1  A    between atoms: C_1  and  O_7 
DOCKED: REMARK    2  A    between atoms: C_2  and  O_12 
DOCKED: REMARK    3  A    between atoms: C_3  and  O_17 
DOCKED: REMARK    4  A    between atoms: C_4  and  O_22 
DOCKED: REMARK    5  A    between atoms: C_5  and  O_27 
DOCKED: REMARK    6  A    between atoms: C_6  and  O_32 
DOCKED: REMARK    7  A    between atoms: O_7  and  P_8 
DOCKED: REMARK    8  A    between atoms: P_8  and  O_10 
DOCKED: REMARK    9  A    between atoms: P_8  and  O_11 
DOCKED: REMARK   10  A    between atoms: O_12  and  P_13 
DOCKED: REMARK   11  A    between atoms: P_13  and  O_15 
DOCKED: REMARK   12  A    between atoms: P_13  and  O_16 
DOCKED: REMARK   13  A    between atoms: O_17  and  P_18 
DOCKED: REMARK   14  A    between atoms: P_18  and  O_20 
DOCKED: REMARK   15  A    between atoms: P_18  and  O_21 
DOCKED: REMARK   16  A    between atoms: O_22  and  P_23 
DOCKED: REMARK   17  A    between atoms: P_23  and  O_25 
DOCKED: REMARK   18  A    between atoms: P_23  and  O_26 
DOCKED: REMARK   19  A    between atoms: O_27  and  P_28 
DOCKED: REMARK   20  A    between atoms: P_28  and  O_30 
DOCKED: REMARK   21  A    between atoms: P_28  and  O_31 
DOCKED: REMARK   22  A    between atoms: O_32  and  P_33 
DOCKED: REMARK   23  A    between atoms: P_33  and  O_35 
DOCKED: REMARK   24  A    between atoms: P_33  and  O_36 
DOCKED: USER                              x       y       z     vdW  Elec       q    Type
DOCKED: USER                           _______ _______ _______ _____ _____    ______ ____
DOCKED: ROOT
DOCKED: ATOM      1  C   UNL d   1      19.441  -9.654 -15.975 -0.01 -0.01    +0.194 C 
DOCKED: ATOM      2  C   UNL d   1      18.422  -9.705 -14.835 -0.02 -0.02    +0.194 C 
DOCKED: ATOM      3  C   UNL d   1      17.083 -10.283 -15.297 -0.07 -0.03    +0.194 C 
DOCKED: ATOM      4  C   UNL d   1      17.221 -11.626 -16.009 -0.09 -0.05    +0.194 C 
DOCKED: ATOM      5  C   UNL d   1      18.306 -11.654 -17.077 -0.03 -0.04    +0.194 C 
DOCKED: ATOM      6  C   UNL d   1      19.627 -11.020 -16.635 -0.00 -0.02    +0.194 C 
DOCKED: ENDROOT
DOCKED: BRANCH   1   7
DOCKED: ATOM      7  O   UNL d   1      20.704  -9.269 -15.427 -0.00 +0.01    -0.278 OA
DOCKED: BRANCH   7   8
DOCKED: ATOM      8  P   UNL d   1      20.884  -7.767 -14.915 -0.01 -0.00    +0.473 P 
DOCKED: ATOM      9  O   UNL d   1      22.176  -7.125 -15.281 -0.00 +0.00    -0.228 OA
DOCKED: BRANCH   8  10
DOCKED: ATOM     10  O   UNL d   1      19.613  -7.003 -15.504 -0.00 +0.01    -0.303 OA
DOCKED: ATOM     11  H   UNL d   1      19.901  -6.179 -15.939 +0.01 -0.00    +0.222 HD
DOCKED: ENDBRANCH   8  10
DOCKED: BRANCH   8  12
DOCKED: ATOM     12  O   UNL d   1      20.551  -7.818 -13.362 -0.03 -0.00    -0.303 OA
DOCKED: ATOM     13  H   UNL d   1      19.904  -8.522 -13.129 +0.02 +0.00    +0.222 HD
DOCKED: ENDBRANCH   8  12
DOCKED: ENDBRANCH   7   8
DOCKED: ENDBRANCH   1   7
DOCKED: BRANCH   2  14
DOCKED: ATOM     14  O   UNL d   1      18.938 -10.533 -13.785 -0.01 +0.01    -0.278 OA
DOCKED: BRANCH  14  15
DOCKED: ATOM     15  P   UNL d   1      18.670 -10.038 -12.286 -0.04 -0.00    +0.473 P 
DOCKED: ATOM     16  O   UNL d   1      19.870  -9.870 -11.408 -0.06 -0.01    -0.228 OA
DOCKED: BRANCH  15  17
DOCKED: ATOM     17  O   UNL d   1      17.842  -8.689 -12.465 -0.08 -0.00    -0.303 OA
DOCKED: ATOM     18  H   UNL d   1      17.068  -8.825 -13.045 +0.06 -0.01    +0.222 HD
DOCKED: ENDBRANCH  15  17
DOCKED: BRANCH  15  19
DOCKED: ATOM     19  O   UNL d   1      17.552 -11.027 -11.736 -0.05 +0.01    -0.303 OA
DOCKED: ATOM     20  H   UNL d   1      16.816 -11.127 -12.368 +0.06 -0.01    +0.222 HD
DOCKED: ENDBRANCH  15  19
DOCKED: ENDBRANCH  14  15
DOCKED: ENDBRANCH   2  14
DOCKED: BRANCH   6  21
DOCKED: ATOM     21  O   UNL d   1      20.400 -10.813 -17.815 -0.00 +0.02    -0.278 OA
DOCKED: BRANCH  21  22
DOCKED: ATOM     22  P   UNL d   1      21.847 -11.473 -17.940 +0.00 -0.02    +0.473 P 
DOCKED: ATOM     23  O   UNL d   1      22.858 -10.795 -18.802 +0.00 +0.01    -0.228 OA
DOCKED: BRANCH  22  24
DOCKED: ATOM     24  O   UNL d   1      22.267 -11.627 -16.413 +0.00 +0.01    -0.303 OA
DOCKED: ATOM     25  H   UNL d   1      22.133 -10.752 -15.967 +0.00 -0.01    +0.222 HD
DOCKED: ENDBRANCH  22  24
DOCKED: BRANCH  22  26
DOCKED: ATOM     26  O   UNL d   1      21.483 -12.983 -18.338 -0.00 +0.02    -0.303 OA
DOCKED: ATOM     27  H   UNL d   1      20.509 -13.085 -18.356 +0.00 -0.02    +0.222 HD
DOCKED: ENDBRANCH  22  26
DOCKED: ENDBRANCH  21  22
DOCKED: ENDBRANCH   6  21
DOCKED: BRANCH   3  28
DOCKED: ATOM     28  O   UNL d   1      16.307 -10.549 -14.135 -0.10 +0.04    -0.278 OA
DOCKED: BRANCH  28  29
DOCKED: ATOM     29  P   UNL d   1      15.114  -9.578 -13.724 -0.17 -0.09    +0.473 P 
DOCKED: ATOM     30  O   UNL d   1      13.789  -9.908 -14.309 -0.40 +0.06    -0.228 OA
DOCKED: BRANCH  29  31
DOCKED: ATOM     31  O   UNL d   1      15.240  -9.639 -12.130 -0.18 +0.03    -0.303 OA
DOCKED: ATOM     32  H   UNL d   1      16.195  -9.676 -11.892 +0.09 -0.01    +0.222 HD
DOCKED: ENDBRANCH  29  31
DOCKED: BRANCH  29  33
DOCKED: ATOM     33  O   UNL d   1      15.716  -8.145 -14.069 -0.09 +0.05    -0.303 OA
DOCKED: ATOM     34  H   UNL d   1      16.056  -7.730 -13.239 +0.09 -0.02    +0.222 HD
DOCKED: ENDBRANCH  29  33
DOCKED: ENDBRANCH  28  29
DOCKED: ENDBRANCH   3  28
DOCKED: BRANCH   5  35
DOCKED: ATOM     35  O   UNL d   1      18.566 -13.033 -17.330 -0.02 +0.06    -0.278 OA
DOCKED: BRANCH  35  36
DOCKED: ATOM     36  P   UNL d   1      18.434 -13.619 -18.808 -0.00 -0.10    +0.473 P 
DOCKED: ATOM     37  O   UNL d   1      19.080 -14.950 -19.033 -0.00 +0.03    -0.228 OA
DOCKED: BRANCH  36  38
DOCKED: ATOM     38  O   UNL d   1      16.856 -13.613 -19.022 -0.06 +0.14    -0.303 OA
DOCKED: ATOM     39  H   UNL d   1      16.471 -12.845 -18.547 +0.04 -0.13    +0.222 HD
DOCKED: ENDBRANCH  36  38
DOCKED: BRANCH  36  40
DOCKED: ATOM     40  O   UNL d   1      18.947 -12.407 -19.701 +0.00 +0.04    -0.303 OA
DOCKED: ATOM     41  H   UNL d   1      19.844 -12.110 -19.431 +0.01 -0.02    +0.222 HD
DOCKED: ENDBRANCH  36  40
DOCKED: ENDBRANCH  35  36
DOCKED: ENDBRANCH   5  35
DOCKED: BRANCH   4  42
DOCKED: ATOM     42  O   UNL d   1      15.975 -11.876 -16.668 -0.11 +0.17    -0.278 OA
DOCKED: BRANCH  42  43
DOCKED: ATOM     43  P   UNL d   1      15.417 -10.795 -17.699 -0.10 -0.29    +0.473 P 
DOCKED: ATOM     44  O   UNL d   1      16.397  -9.843 -18.293 -0.04 +0.06    -0.228 OA
DOCKED: BRANCH  43  45
DOCKED: ATOM     45  O   UNL d   1      14.652 -11.693 -18.767 -0.15 +0.33    -0.303 OA
DOCKED: ATOM     46  H   UNL d   1      14.945 -12.625 -18.726 +0.05 -0.29    +0.222 HD
DOCKED: ENDBRANCH  43  45
DOCKED: BRANCH  43  47
DOCKED: ATOM     47  O   UNL d   1      14.197 -10.125 -16.903 -0.71 +0.16    -0.303 OA
DOCKED: ATOM     48  H   UNL d   1      13.789 -10.794 -16.315 -0.38 -0.22    +0.222 HD
DOCKED: ENDBRANCH  43  47
DOCKED: ENDBRANCH  42  43
DOCKED: ENDBRANCH   4  42
DOCKED: TORSDOF 24
DOCKED: TER
DOCKED: ENDMDL
________________________________________________________________________________


	BEGINNING GENETIC ALGORITHM DOCKING 62 of 100
Run: 62 Seed: 133209174 1216976157 [ Run 62 of 100 GA/GALS ]
Beginning LAMARCKIAN GENETIC ALGORITHM (LGA), with a maximum of 25000000 energy evaluations.

Final-Value: -17.983


	FINAL GENETIC ALGORITHM DOCKED STATE
	_______________________________________________


Detailed state:  trans -14.714 1.368 4.033 quatxyzw -0.410477 -0.375661 -0.024697 -0.830529 center 0.035 0.082 -0.065 ntor 24 74.3509 124.3039 82.8539 93.1531 -18.9790 -168.8750 -117.5478 -54.7540 160.4333 35.4537 -98.8394 -179.0466 -90.1438 -52.7429 180.0000 63.5066 118.3860 -5.0209 -139.5292 -16.0074 -175.3045 154.7129 140.2202 144.4451
State:	-14.714   1.368   4.033  -0.737 -0.674 -0.044 -67.694     74.35  124.30   82.85   93.15  -18.98 -168.88 -117.55  -54.75  160.43   35.45  -98.84 -179.05  -90.14  -52.74  180.00   63.51  118.39   -5.02 -139.53  -16.01 -175.30  154.71  140.22  144.45

DOCKED: MODEL       62
DOCKED: USER    Run = 62
DOCKED: USER    DPF = D:/Protein_go_brrr/autodock/final/mut_D99N/IHP/dock.dpf
DOCKED: USER  
DOCKED: USER    Estimated Free Energy of Binding    =   +2.55 kcal/mol  [=(1)+(2)+(3)-(4)]
DOCKED: USER    
DOCKED: USER    (1) Final Intermolecular Energy     =   -4.61 kcal/mol
DOCKED: USER        vdW + Hbond + desolv Energy     =   -4.32 kcal/mol
DOCKED: USER        Electrostatic Energy            =   -0.29 kcal/mol
DOCKED: USER    (2) Final Total Internal Energy     =  -13.38 kcal/mol
DOCKED: USER    (3) Torsional Free Energy           =   +7.16 kcal/mol
DOCKED: USER    (4) Unbound System's Energy  [=(2)] =  -13.38 kcal/mol
DOCKED: USER    
DOCKED: USER    
DOCKED: USER    NEWDPF move IHP_ideal_opt.pdbqt
DOCKED: USER    NEWDPF about 0.035000 0.082000 -0.065000
DOCKED: USER    NEWDPF tran0 -14.714409 1.367537 4.033345
DOCKED: USER    NEWDPF quaternion0 -0.410477 -0.375661 -0.024697 -0.830529
DOCKED: USER    NEWDPF axisangle0 -0.736973 -0.674466 -0.044341 -67.693861
DOCKED: USER    NEWDPF quat0 -0.736973 -0.674466 -0.044341 -67.693861
DOCKED: USER    NEWDPF dihe0 74.35 124.30 82.85 93.15 -18.98 -168.88 -117.55 -54.75 160.43 35.45 -98.84 -179.05 -90.14 -52.74 180.00 63.51 118.39 -5.02 -139.53 -16.01 -175.30 154.71 140.22 144.45 
DOCKED: USER  keepresnum = 1 
DOCKED: USER  
DOCKED: REMARK  24 active torsions:
DOCKED: REMARK  status: ('A' for Active; 'I' for Inactive)
DOCKED: REMARK    1  A    between atoms: C_1  and  O_7 
DOCKED: REMARK    2  A    between atoms: C_2  and  O_12 
DOCKED: REMARK    3  A    between atoms: C_3  and  O_17 
DOCKED: REMARK    4  A    between atoms: C_4  and  O_22 
DOCKED: REMARK    5  A    between atoms: C_5  and  O_27 
DOCKED: REMARK    6  A    between atoms: C_6  and  O_32 
DOCKED: REMARK    7  A    between atoms: O_7  and  P_8 
DOCKED: REMARK    8  A    between atoms: P_8  and  O_10 
DOCKED: REMARK    9  A    between atoms: P_8  and  O_11 
DOCKED: REMARK   10  A    between atoms: O_12  and  P_13 
DOCKED: REMARK   11  A    between atoms: P_13  and  O_15 
DOCKED: REMARK   12  A    between atoms: P_13  and  O_16 
DOCKED: REMARK   13  A    between atoms: O_17  and  P_18 
DOCKED: REMARK   14  A    between atoms: P_18  and  O_20 
DOCKED: REMARK   15  A    between atoms: P_18  and  O_21 
DOCKED: REMARK   16  A    between atoms: O_22  and  P_23 
DOCKED: REMARK   17  A    between atoms: P_23  and  O_25 
DOCKED: REMARK   18  A    between atoms: P_23  and  O_26 
DOCKED: REMARK   19  A    between atoms: O_27  and  P_28 
DOCKED: REMARK   20  A    between atoms: P_28  and  O_30 
DOCKED: REMARK   21  A    between atoms: P_28  and  O_31 
DOCKED: REMARK   22  A    between atoms: O_32  and  P_33 
DOCKED: REMARK   23  A    between atoms: P_33  and  O_35 
DOCKED: REMARK   24  A    between atoms: P_33  and  O_36 
DOCKED: USER                              x       y       z     vdW  Elec       q    Type
DOCKED: USER                           _______ _______ _______ _____ _____    ______ ____
DOCKED: ROOT
DOCKED: ATOM      1  C   UNL d   1     -14.604   1.669   5.731 -0.04 +0.07    +0.194 C 
DOCKED: ATOM      2  C   UNL d   1     -15.557   0.545   5.320 -0.03 +0.10    +0.194 C 
DOCKED: ATOM      3  C   UNL d   1     -16.399   0.932   4.102 -0.04 +0.07    +0.194 C 
DOCKED: ATOM      4  C   UNL d   1     -15.562   1.438   2.929 -0.12 +0.07    +0.194 C 
DOCKED: ATOM      5  C   UNL d   1     -14.519   2.479   3.314 -0.15 +0.06    +0.194 C 
DOCKED: ATOM      6  C   UNL d   1     -13.719   2.120   4.568 -0.10 +0.07    +0.194 C 
DOCKED: ENDROOT
DOCKED: BRANCH   1   7
DOCKED: ATOM      7  O   UNL d   1     -13.741   1.170   6.755 -0.04 -0.12    -0.278 OA
DOCKED: BRANCH   7   8
DOCKED: ATOM      8  P   UNL d   1     -12.285   0.661   6.339 -0.03 +0.30    +0.473 P 
DOCKED: ATOM      9  O   UNL d   1     -12.219  -0.075   5.047 -0.73 -0.31    -0.228 OA
DOCKED: BRANCH   8  10
DOCKED: ATOM     10  O   UNL d   1     -11.394   1.985   6.354 -0.04 -0.08    -0.303 OA
DOCKED: ATOM     11  H   UNL d   1     -11.495   2.456   5.506 +0.09 +0.06    +0.222 HD
DOCKED: ENDBRANCH   8  10
DOCKED: BRANCH   8  12
DOCKED: ATOM     12  O   UNL d   1     -11.741  -0.120   7.611 -0.67 -0.18    -0.303 OA
DOCKED: ATOM     13  H   UNL d   1     -12.107  -1.029   7.691 +0.08 +0.14    +0.222 HD
DOCKED: ENDBRANCH   8  12
DOCKED: ENDBRANCH   7   8
DOCKED: ENDBRANCH   1   7
DOCKED: BRANCH   2  14
DOCKED: ATOM     14  O   UNL d   1     -14.790  -0.621   4.992 -0.07 -0.31    -0.278 OA
DOCKED: BRANCH  14  15
DOCKED: ATOM     15  P   UNL d   1     -14.997  -1.901   5.931 +0.03 +0.53    +0.473 P 
DOCKED: ATOM     16  O   UNL d   1     -16.017  -1.778   7.019 -0.01 -0.11    -0.228 OA
DOCKED: BRANCH  15  17
DOCKED: ATOM     17  O   UNL d   1     -15.322  -3.081   4.911 -0.18 -0.45    -0.303 OA
DOCKED: ATOM     18  H   UNL d   1     -15.519  -2.732   4.021 +0.01 +0.35    +0.222 HD
DOCKED: ENDBRANCH  15  17
DOCKED: BRANCH  15  19
DOCKED: ATOM     19  O   UNL d   1     -13.529  -2.286   6.407 -0.38 -0.47    -0.303 OA
DOCKED: ATOM     20  H   UNL d   1     -12.966  -1.497   6.512 +0.04 +0.28    +0.222 HD
DOCKED: ENDBRANCH  15  19
DOCKED: ENDBRANCH  14  15
DOCKED: ENDBRANCH   2  14
DOCKED: BRANCH   6  21
DOCKED: ATOM     21  O   UNL d   1     -13.053   3.309   4.987 -0.09 -0.06    -0.278 OA
DOCKED: BRANCH  21  22
DOCKED: ATOM     22  P   UNL d   1     -13.837   4.390   5.860 -0.04 +0.06    +0.473 P 
DOCKED: ATOM     23  O   UNL d   1     -13.448   5.824   5.722 -0.13 -0.00    -0.228 OA
DOCKED: BRANCH  22  24
DOCKED: ATOM     24  O   UNL d   1     -15.351   4.071   5.490 -0.03 -0.05    -0.303 OA
DOCKED: ATOM     25  H   UNL d   1     -15.575   4.559   4.657 +0.04 +0.03    +0.222 HD
DOCKED: ENDBRANCH  22  24
DOCKED: BRANCH  22  26
DOCKED: ATOM     26  O   UNL d   1     -13.717   3.768   7.333 -0.06 -0.06    -0.303 OA
DOCKED: ATOM     27  H   UNL d   1     -13.005   3.096   7.341 +0.08 +0.05    +0.222 HD
DOCKED: ENDBRANCH  22  26
DOCKED: ENDBRANCH  21  22
DOCKED: ENDBRANCH   6  21
DOCKED: BRANCH   3  28
DOCKED: ATOM     28  O   UNL d   1     -17.036  -0.247   3.629 -0.02 -0.11    -0.278 OA
DOCKED: BRANCH  28  29
DOCKED: ATOM     29  P   UNL d   1     -16.376  -1.106   2.461 -0.07 +0.29    +0.473 P 
DOCKED: ATOM     30  O   UNL d   1     -14.895  -1.207   2.499 -0.26 -0.33    -0.228 OA
DOCKED: BRANCH  29  31
DOCKED: ATOM     31  O   UNL d   1     -17.201  -2.469   2.616 -0.02 -0.14    -0.303 OA
DOCKED: ATOM     32  H   UNL d   1     -16.973  -2.877   3.483 +0.01 +0.13    +0.222 HD
DOCKED: ENDBRANCH  29  31
DOCKED: BRANCH  29  33
DOCKED: ATOM     33  O   UNL d   1     -17.020  -0.451   1.161 -0.08 -0.09    -0.303 OA
DOCKED: ATOM     34  H   UNL d   1     -17.572   0.323   1.430 +0.03 +0.05    +0.222 HD
DOCKED: ENDBRANCH  29  33
DOCKED: ENDBRANCH  28  29
DOCKED: ENDBRANCH   3  28
DOCKED: BRANCH   5  35
DOCKED: ATOM     35  O   UNL d   1     -13.597   2.524   2.227 -0.19 -0.08    -0.278 OA
DOCKED: BRANCH  35  36
DOCKED: ATOM     36  P   UNL d   1     -12.331   1.555   2.205 -0.18 +0.21    +0.473 P 
DOCKED: ATOM     37  O   UNL d   1     -11.666   1.391   0.875 -0.31 -0.07    -0.228 OA
DOCKED: BRANCH  36  38
DOCKED: ATOM     38  O   UNL d   1     -11.403   2.206   3.325 -0.10 -0.10    -0.303 OA
DOCKED: ATOM     39  H   UNL d   1     -11.611   1.797   4.192 +0.09 +0.10    +0.222 HD
DOCKED: ENDBRANCH  36  38
DOCKED: BRANCH  36  40
DOCKED: ATOM     40  O   UNL d   1     -12.898   0.239   2.896 -0.35 -0.36    -0.303 OA
DOCKED: ATOM     41  H   UNL d   1     -13.809   0.373   3.241 +0.05 +0.23    +0.222 HD
DOCKED: ENDBRANCH  36  40
DOCKED: ENDBRANCH  35  36
DOCKED: ENDBRANCH   5  35
DOCKED: BRANCH   4  42
DOCKED: ATOM     42  O   UNL d   1     -16.467   2.067   2.015 -0.12 -0.07    -0.278 OA
DOCKED: BRANCH  42  43
DOCKED: ATOM     43  P   UNL d   1     -17.745   2.827   2.595 -0.08 +0.08    +0.473 P 
DOCKED: ATOM     44  O   UNL d   1     -17.558   3.644   3.826 -0.06 -0.03    -0.228 OA
DOCKED: BRANCH  43  45
DOCKED: ATOM     45  O   UNL d   1     -18.260   3.654   1.337 -0.13 -0.06    -0.303 OA
DOCKED: ATOM     46  H   UNL d   1     -18.975   4.273   1.584 +0.06 +0.05    +0.222 HD
DOCKED: ENDBRANCH  43  45
DOCKED: BRANCH  43  47
DOCKED: ATOM     47  O   UNL d   1     -18.846   1.667   2.696 -0.03 -0.05    -0.303 OA
DOCKED: ATOM     48  H   UNL d   1     -18.457   0.824   2.383 +0.03 +0.04    +0.222 HD
DOCKED: ENDBRANCH  43  47
DOCKED: ENDBRANCH  42  43
DOCKED: ENDBRANCH   4  42
DOCKED: TORSDOF 24
DOCKED: TER
DOCKED: ENDMDL
________________________________________________________________________________


	BEGINNING GENETIC ALGORITHM DOCKING 63 of 100
Run: 63 Seed: 63460617 145663992 [ Run 63 of 100 GA/GALS ]
Beginning LAMARCKIAN GENETIC ALGORITHM (LGA), with a maximum of 25000000 energy evaluations.

Final-Value: -20.470


	FINAL GENETIC ALGORITHM DOCKED STATE
	_______________________________________________


Detailed state:  trans -12.866 -5.353 -3.136 quatxyzw 0.539585 0.717166 0.323569 0.299707 center 0.035 0.082 -0.065 ntor 24 -148.6932 34.7207 179.7472 14.1840 117.4533 119.9886 30.7272 -107.9262 -42.1174 106.4358 -56.1492 176.0647 40.6731 -178.9004 72.5374 -97.9040 -22.0693 -143.5973 -8.0325 16.6808 -24.7917 41.4294 161.6601 -36.1075
State:	-12.866  -5.353  -3.136   0.566  0.752  0.339 145.120   -148.69   34.72  179.75   14.18  117.45  119.99   30.73 -107.93  -42.12  106.44  -56.15  176.06   40.67 -178.90   72.54  -97.90  -22.07 -143.60   -8.03   16.68  -24.79   41.43  161.66  -36.11

DOCKED: MODEL       63
DOCKED: USER    Run = 63
DOCKED: USER    DPF = D:/Protein_go_brrr/autodock/final/mut_D99N/IHP/dock.dpf
DOCKED: USER  
DOCKED: USER    Estimated Free Energy of Binding    =   +1.34 kcal/mol  [=(1)+(2)+(3)-(4)]
DOCKED: USER    
DOCKED: USER    (1) Final Intermolecular Energy     =   -5.82 kcal/mol
DOCKED: USER        vdW + Hbond + desolv Energy     =   -5.35 kcal/mol
DOCKED: USER        Electrostatic Energy            =   -0.47 kcal/mol
DOCKED: USER    (2) Final Total Internal Energy     =  -14.65 kcal/mol
DOCKED: USER    (3) Torsional Free Energy           =   +7.16 kcal/mol
DOCKED: USER    (4) Unbound System's Energy  [=(2)] =  -14.65 kcal/mol
DOCKED: USER    
DOCKED: USER    
DOCKED: USER    NEWDPF move IHP_ideal_opt.pdbqt
DOCKED: USER    NEWDPF about 0.035000 0.082000 -0.065000
DOCKED: USER    NEWDPF tran0 -12.865810 -5.353063 -3.135708
DOCKED: USER    NEWDPF quaternion0 0.539585 0.717166 0.323569 0.299707
DOCKED: USER    NEWDPF axisangle0 0.565584 0.751722 0.339160 145.120047
DOCKED: USER    NEWDPF quat0 0.565584 0.751722 0.339160 145.120047
DOCKED: USER    NEWDPF dihe0 -148.69 34.72 179.75 14.18 117.45 119.99 30.73 -107.93 -42.12 106.44 -56.15 176.06 40.67 -178.90 72.54 -97.90 -22.07 -143.60 -8.03 16.68 -24.79 41.43 161.66 -36.11 
DOCKED: USER  keepresnum = 1 
DOCKED: USER  
DOCKED: REMARK  24 active torsions:
DOCKED: REMARK  status: ('A' for Active; 'I' for Inactive)
DOCKED: REMARK    1  A    between atoms: C_1  and  O_7 
DOCKED: REMARK    2  A    between atoms: C_2  and  O_12 
DOCKED: REMARK    3  A    between atoms: C_3  and  O_17 
DOCKED: REMARK    4  A    between atoms: C_4  and  O_22 
DOCKED: REMARK    5  A    between atoms: C_5  and  O_27 
DOCKED: REMARK    6  A    between atoms: C_6  and  O_32 
DOCKED: REMARK    7  A    between atoms: O_7  and  P_8 
DOCKED: REMARK    8  A    between atoms: P_8  and  O_10 
DOCKED: REMARK    9  A    between atoms: P_8  and  O_11 
DOCKED: REMARK   10  A    between atoms: O_12  and  P_13 
DOCKED: REMARK   11  A    between atoms: P_13  and  O_15 
DOCKED: REMARK   12  A    between atoms: P_13  and  O_16 
DOCKED: REMARK   13  A    between atoms: O_17  and  P_18 
DOCKED: REMARK   14  A    between atoms: P_18  and  O_20 
DOCKED: REMARK   15  A    between atoms: P_18  and  O_21 
DOCKED: REMARK   16  A    between atoms: O_22  and  P_23 
DOCKED: REMARK   17  A    between atoms: P_23  and  O_25 
DOCKED: REMARK   18  A    between atoms: P_23  and  O_26 
DOCKED: REMARK   19  A    between atoms: O_27  and  P_28 
DOCKED: REMARK   20  A    between atoms: P_28  and  O_30 
DOCKED: REMARK   21  A    between atoms: P_28  and  O_31 
DOCKED: REMARK   22  A    between atoms: O_32  and  P_33 
DOCKED: REMARK   23  A    between atoms: P_33  and  O_35 
DOCKED: REMARK   24  A    between atoms: P_33  and  O_36 
DOCKED: USER                              x       y       z     vdW  Elec       q    Type
DOCKED: USER                           _______ _______ _______ _____ _____    ______ ____
DOCKED: ROOT
DOCKED: ATOM      1  C   UNL d   1     -14.087  -4.188  -2.768 -0.17 +0.02    +0.194 C 
DOCKED: ATOM      2  C   UNL d   1     -14.539  -5.370  -3.628 -0.10 +0.01    +0.194 C 
DOCKED: ATOM      3  C   UNL d   1     -13.513  -5.706  -4.713 -0.15 -0.01    +0.194 C 
DOCKED: ATOM      4  C   UNL d   1     -12.100  -5.895  -4.167 -0.14 -0.02    +0.194 C 
DOCKED: ATOM      5  C   UNL d   1     -11.651  -4.797  -3.212 -0.21 -0.00    +0.194 C 
DOCKED: ATOM      6  C   UNL d   1     -12.701  -4.418  -2.165 -0.15 +0.02    +0.194 C 
DOCKED: ENDROOT
DOCKED: BRANCH   1   7
DOCKED: ATOM      7  O   UNL d   1     -15.006  -4.051  -1.681 -0.06 -0.05    -0.278 OA
DOCKED: BRANCH   7   8
DOCKED: ATOM      8  P   UNL d   1     -15.616  -2.605  -1.382 -0.10 +0.11    +0.473 P 
DOCKED: ATOM      9  O   UNL d   1     -16.911  -2.314  -2.056 -0.11 -0.03    -0.228 OA
DOCKED: BRANCH   8  10
DOCKED: ATOM     10  O   UNL d   1     -15.711  -2.547   0.210 -0.08 -0.14    -0.303 OA
DOCKED: ATOM     11  H   UNL d   1     -14.841  -2.759   0.597 +0.04 +0.17    +0.222 HD
DOCKED: ENDBRANCH   8  10
DOCKED: BRANCH   8  12
DOCKED: ATOM     12  O   UNL d   1     -14.434  -1.587  -1.682 -0.20 -0.07    -0.303 OA
DOCKED: ATOM     13  H   UNL d   1     -13.567  -2.033  -1.817 +0.10 +0.06    +0.222 HD
DOCKED: ENDBRANCH   8  12
DOCKED: ENDBRANCH   7   8
DOCKED: ENDBRANCH   1   7
DOCKED: BRANCH   2  14
DOCKED: ATOM     14  O   UNL d   1     -14.709  -6.520  -2.789 -0.02 -0.00    -0.278 OA
DOCKED: BRANCH  14  15
DOCKED: ATOM     15  P   UNL d   1     -15.844  -7.562  -3.225 +0.00 -0.01    +0.473 P 
DOCKED: ATOM     16  O   UNL d   1     -16.904  -7.862  -2.213 -0.00 -0.00    -0.228 OA
DOCKED: BRANCH  15  17
DOCKED: ATOM     17  O   UNL d   1     -16.433  -6.952  -4.574 -0.03 +0.01    -0.303 OA
DOCKED: ATOM     18  H   UNL d   1     -15.890  -7.211  -5.343 +0.03 -0.01    +0.222 HD
DOCKED: ENDBRANCH  15  17
DOCKED: BRANCH  15  19
DOCKED: ATOM     19  O   UNL d   1     -15.038  -8.822  -3.768 -0.00 +0.02    -0.303 OA
DOCKED: ATOM     20  H   UNL d   1     -14.313  -8.556  -4.364 +0.02 -0.02    +0.222 HD
DOCKED: ENDBRANCH  15  19
DOCKED: ENDBRANCH  14  15
DOCKED: ENDBRANCH   2  14
DOCKED: BRANCH   6  21
DOCKED: ATOM     21  O   UNL d   1     -12.284  -3.181  -1.592 -0.08 -0.07    -0.278 OA
DOCKED: BRANCH  21  22
DOCKED: ATOM     22  P   UNL d   1     -12.156  -3.047  -0.007 -0.06 +0.29    +0.473 P 
DOCKED: ATOM     23  O   UNL d   1     -10.792  -3.094   0.596 -0.14 -0.15    -0.228 OA
DOCKED: BRANCH  22  24
DOCKED: ATOM     24  O   UNL d   1     -12.963  -1.704   0.272 -0.18 -0.23    -0.303 OA
DOCKED: ATOM     25  H   UNL d   1     -13.848  -1.780  -0.167 +0.07 +0.12    +0.222 HD
DOCKED: ENDBRANCH  22  24
DOCKED: BRANCH  22  26
DOCKED: ATOM     26  O   UNL d   1     -13.187  -4.164   0.499 -0.11 -0.23    -0.303 OA
DOCKED: ATOM     27  H   UNL d   1     -14.061  -4.005   0.087 +0.05 +0.12    +0.222 HD
DOCKED: ENDBRANCH  22  26
DOCKED: ENDBRANCH  21  22
DOCKED: ENDBRANCH   6  21
DOCKED: BRANCH   3  28
DOCKED: ATOM     28  O   UNL d   1     -13.875  -6.963  -5.269 -0.05 +0.03    -0.278 OA
DOCKED: BRANCH  28  29
DOCKED: ATOM     29  P   UNL d   1     -13.494  -7.316  -6.775 -0.06 -0.07    +0.473 P 
DOCKED: ATOM     30  O   UNL d   1     -14.631  -7.695  -7.652 -0.05 +0.02    -0.228 OA
DOCKED: BRANCH  29  31
DOCKED: ATOM     31  O   UNL d   1     -12.679  -5.997  -7.173 -0.15 +0.08    -0.303 OA
DOCKED: ATOM     32  H   UNL d   1     -11.754  -6.089  -6.846 -0.43 -0.12    +0.222 HD
DOCKED: ENDBRANCH  29  31
DOCKED: BRANCH  29  33
DOCKED: ATOM     33  O   UNL d   1     -12.341  -8.397  -6.584 -0.06 +0.07    -0.303 OA
DOCKED: ATOM     34  H   UNL d   1     -11.682  -8.052  -5.932 +0.08 -0.07    +0.222 HD
DOCKED: ENDBRANCH  29  33
DOCKED: ENDBRANCH  28  29
DOCKED: ENDBRANCH   3  28
DOCKED: BRANCH   5  35
DOCKED: ATOM     35  O   UNL d   1     -10.530  -5.329  -2.509 -0.16 +0.03    -0.278 OA
DOCKED: BRANCH  35  36
DOCKED: ATOM     36  P   UNL d   1     -10.722  -6.535  -1.483 -0.08 -0.11    +0.473 P 
DOCKED: ATOM     37  O   UNL d   1     -11.946  -7.369  -1.691 -0.05 +0.05    -0.228 OA
DOCKED: BRANCH  36  38
DOCKED: ATOM     38  O   UNL d   1      -9.352  -7.329  -1.652 -0.15 +0.27    -0.303 OA
DOCKED: ATOM     39  H   UNL d   1      -9.534  -8.197  -2.072 -0.46 -0.43    +0.222 HD
DOCKED: ENDBRANCH  36  38
DOCKED: BRANCH  36  40
DOCKED: ATOM     40  O   UNL d   1     -10.573  -5.810  -0.075 -0.13 -0.02    -0.303 OA
DOCKED: ATOM     41  H   UNL d   1     -11.297  -5.163   0.080 +0.07 +0.06    +0.222 HD
DOCKED: ENDBRANCH  36  40
DOCKED: ENDBRANCH  35  36
DOCKED: ENDBRANCH   5  35
DOCKED: BRANCH   4  42
DOCKED: ATOM     42  O   UNL d   1     -11.214  -5.865  -5.291 -0.19 +0.07    -0.278 OA
DOCKED: BRANCH  42  43
DOCKED: ATOM     43  P   UNL d   1      -9.892  -6.758  -5.255 -0.21 -0.20    +0.473 P 
DOCKED: ATOM     44  O   UNL d   1      -8.622  -6.088  -4.860 -0.47 +0.08    -0.228 OA
DOCKED: BRANCH  43  45
DOCKED: ATOM     45  O   UNL d   1     -10.313  -7.966  -4.309 -0.13 +0.25    -0.303 OA
DOCKED: ATOM     46  H   UNL d   1      -9.656  -8.109  -3.598 -0.43 -0.39    +0.222 HD
DOCKED: ENDBRANCH  43  45
DOCKED: BRANCH  43  47
DOCKED: ATOM     47  O   UNL d   1      -9.885  -7.459  -6.696 -0.01 +0.11    -0.303 OA
DOCKED: ATOM     48  H   UNL d   1     -10.709  -7.227  -7.172 -0.45 -0.10    +0.222 HD
DOCKED: ENDBRANCH  43  47
DOCKED: ENDBRANCH  42  43
DOCKED: ENDBRANCH   4  42
DOCKED: TORSDOF 24
DOCKED: TER
DOCKED: ENDMDL
________________________________________________________________________________


	BEGINNING GENETIC ALGORITHM DOCKING 64 of 100
Run: 64 Seed: 1033725677 688953562 [ Run 64 of 100 GA/GALS ]
Beginning LAMARCKIAN GENETIC ALGORITHM (LGA), with a maximum of 25000000 energy evaluations.

Final-Value: -16.596


	FINAL GENETIC ALGORITHM DOCKED STATE
	_______________________________________________


Detailed state:  trans -13.902 -3.447 9.269 quatxyzw -0.536791 0.620885 -0.567924 -0.061808 center 0.035 0.082 -0.065 ntor 24 81.4907 49.6732 45.1184 79.3500 107.0983 138.2121 -128.0238 -21.0392 56.2031 109.4089 -164.9416 173.2371 -30.9841 121.8304 57.0983 -165.9642 -81.3355 85.4073 14.0468 -15.7586 -27.1216 4.2239 -180.0000 15.8363
State:	-13.902  -3.447   9.269  -0.538  0.622 -0.569 -172.913     81.49   49.67   45.12   79.35  107.10  138.21 -128.02  -21.04   56.20  109.41 -164.94  173.24  -30.98  121.83   57.10 -165.96  -81.34   85.41   14.05  -15.76  -27.12    4.22 -180.00   15.84

DOCKED: MODEL       64
DOCKED: USER    Run = 64
DOCKED: USER    DPF = D:/Protein_go_brrr/autodock/final/mut_D99N/IHP/dock.dpf
DOCKED: USER  
DOCKED: USER    Estimated Free Energy of Binding    =   +4.10 kcal/mol  [=(1)+(2)+(3)-(4)]
DOCKED: USER    
DOCKED: USER    (1) Final Intermolecular Energy     =   -3.06 kcal/mol
DOCKED: USER        vdW + Hbond + desolv Energy     =   -2.91 kcal/mol
DOCKED: USER        Electrostatic Energy            =   -0.16 kcal/mol
DOCKED: USER    (2) Final Total Internal Energy     =  -13.53 kcal/mol
DOCKED: USER    (3) Torsional Free Energy           =   +7.16 kcal/mol
DOCKED: USER    (4) Unbound System's Energy  [=(2)] =  -13.53 kcal/mol
DOCKED: USER    
DOCKED: USER    
DOCKED: USER    NEWDPF move IHP_ideal_opt.pdbqt
DOCKED: USER    NEWDPF about 0.035000 0.082000 -0.065000
DOCKED: USER    NEWDPF tran0 -13.902384 -3.446701 9.268907
DOCKED: USER    NEWDPF quaternion0 -0.536791 0.620885 -0.567924 -0.061808
DOCKED: USER    NEWDPF axisangle0 -0.537819 0.622074 -0.569012 -172.912819
DOCKED: USER    NEWDPF quat0 -0.537819 0.622074 -0.569012 -172.912819
DOCKED: USER    NEWDPF dihe0 81.49 49.67 45.12 79.35 107.10 138.21 -128.02 -21.04 56.20 109.41 -164.94 173.24 -30.98 121.83 57.10 -165.96 -81.34 85.41 14.05 -15.76 -27.12 4.22 -180.00 15.84 
DOCKED: USER  keepresnum = 1 
DOCKED: USER  
DOCKED: REMARK  24 active torsions:
DOCKED: REMARK  status: ('A' for Active; 'I' for Inactive)
DOCKED: REMARK    1  A    between atoms: C_1  and  O_7 
DOCKED: REMARK    2  A    between atoms: C_2  and  O_12 
DOCKED: REMARK    3  A    between atoms: C_3  and  O_17 
DOCKED: REMARK    4  A    between atoms: C_4  and  O_22 
DOCKED: REMARK    5  A    between atoms: C_5  and  O_27 
DOCKED: REMARK    6  A    between atoms: C_6  and  O_32 
DOCKED: REMARK    7  A    between atoms: O_7  and  P_8 
DOCKED: REMARK    8  A    between atoms: P_8  and  O_10 
DOCKED: REMARK    9  A    between atoms: P_8  and  O_11 
DOCKED: REMARK   10  A    between atoms: O_12  and  P_13 
DOCKED: REMARK   11  A    between atoms: P_13  and  O_15 
DOCKED: REMARK   12  A    between atoms: P_13  and  O_16 
DOCKED: REMARK   13  A    between atoms: O_17  and  P_18 
DOCKED: REMARK   14  A    between atoms: P_18  and  O_20 
DOCKED: REMARK   15  A    between atoms: P_18  and  O_21 
DOCKED: REMARK   16  A    between atoms: O_22  and  P_23 
DOCKED: REMARK   17  A    between atoms: P_23  and  O_25 
DOCKED: REMARK   18  A    between atoms: P_23  and  O_26 
DOCKED: REMARK   19  A    between atoms: O_27  and  P_28 
DOCKED: REMARK   20  A    between atoms: P_28  and  O_30 
DOCKED: REMARK   21  A    between atoms: P_28  and  O_31 
DOCKED: REMARK   22  A    between atoms: O_32  and  P_33 
DOCKED: REMARK   23  A    between atoms: P_33  and  O_35 
DOCKED: REMARK   24  A    between atoms: P_33  and  O_36 
DOCKED: USER                              x       y       z     vdW  Elec       q    Type
DOCKED: USER                           _______ _______ _______ _____ _____    ______ ____
DOCKED: ROOT
DOCKED: ATOM      1  C   UNL d   1     -13.351  -4.679  10.347 -0.01 +0.04    +0.194 C 
DOCKED: ATOM      2  C   UNL d   1     -12.606  -3.345  10.431 -0.04 +0.05    +0.194 C 
DOCKED: ATOM      3  C   UNL d   1     -12.314  -2.772   9.042 -0.08 +0.07    +0.194 C 
DOCKED: ATOM      4  C   UNL d   1     -13.553  -2.686   8.154 -0.06 +0.10    +0.194 C 
DOCKED: ATOM      5  C   UNL d   1     -14.390  -3.958   8.132 -0.03 +0.08    +0.194 C 
DOCKED: ATOM      6  C   UNL d   1     -14.630  -4.566   9.516 -0.00 +0.05    +0.194 C 
DOCKED: ENDROOT
DOCKED: BRANCH   1   7
DOCKED: ATOM      7  O   UNL d   1     -13.736  -5.058  11.671 -0.00 -0.05    -0.278 OA
DOCKED: BRANCH   7   8
DOCKED: ATOM      8  P   UNL d   1     -12.977  -6.284  12.360 -0.00 +0.06    +0.473 P 
DOCKED: ATOM      9  O   UNL d   1     -11.646  -6.609  11.778 -0.02 -0.04    -0.228 OA
DOCKED: BRANCH   8  10
DOCKED: ATOM     10  O   UNL d   1     -12.906  -5.877  13.901 -0.00 -0.04    -0.303 OA
DOCKED: ATOM     11  H   UNL d   1     -12.212  -5.204  14.030 +0.02 +0.03    +0.222 HD
DOCKED: ENDBRANCH   8  10
DOCKED: BRANCH   8  12
DOCKED: ATOM     12  O   UNL d   1     -14.035  -7.468  12.376 -0.00 -0.03    -0.303 OA
DOCKED: ATOM     13  H   UNL d   1     -14.875  -7.242  11.916 +0.00 +0.02    +0.222 HD
DOCKED: ENDBRANCH   8  12
DOCKED: ENDBRANCH   7   8
DOCKED: ENDBRANCH   1   7
DOCKED: BRANCH   2  14
DOCKED: ATOM     14  O   UNL d   1     -13.410  -2.405  11.153 -0.01 -0.07    -0.278 OA
DOCKED: BRANCH  14  15
DOCKED: ATOM     15  P   UNL d   1     -12.819  -1.878  12.545 -0.03 +0.13    +0.473 P 
DOCKED: ATOM     16  O   UNL d   1     -13.627  -0.850  13.272 -0.06 -0.08    -0.228 OA
DOCKED: BRANCH  15  17
DOCKED: ATOM     17  O   UNL d   1     -12.596  -3.205  13.398 -0.02 -0.06    -0.303 OA
DOCKED: ATOM     18  H   UNL d   1     -13.400  -3.759  13.404 +0.02 +0.04    +0.222 HD
DOCKED: ENDBRANCH  15  17
DOCKED: BRANCH  15  19
DOCKED: ATOM     19  O   UNL d   1     -11.322  -1.460  12.207 -0.15 -0.09    -0.303 OA
DOCKED: ATOM     20  H   UNL d   1     -11.195  -1.316  11.251 +0.10 +0.06    +0.222 HD
DOCKED: ENDBRANCH  15  19
DOCKED: ENDBRANCH  14  15
DOCKED: ENDBRANCH   2  14
DOCKED: BRANCH   6  21
DOCKED: ATOM     21  O   UNL d   1     -15.110  -5.892   9.306 +0.00 -0.05    -0.278 OA
DOCKED: BRANCH  21  22
DOCKED: ATOM     22  P   UNL d   1     -16.436  -6.380  10.047 +0.00 +0.06    +0.473 P 
DOCKED: ATOM     23  O   UNL d   1     -17.749  -6.118   9.389 +0.00 -0.03    -0.228 OA
DOCKED: BRANCH  22  24
DOCKED: ATOM     24  O   UNL d   1     -16.116  -7.917  10.308 +0.00 -0.03    -0.303 OA
DOCKED: ATOM     25  H   UNL d   1     -15.169  -7.991  10.591 +0.00 +0.02    +0.222 HD
DOCKED: ENDBRANCH  22  24
DOCKED: BRANCH  22  26
DOCKED: ATOM     26  O   UNL d   1     -16.244  -5.749  11.508 +0.00 -0.04    -0.303 OA
DOCKED: ATOM     27  H   UNL d   1     -15.295  -5.777  11.748 +0.00 +0.03    +0.222 HD
DOCKED: ENDBRANCH  22  26
DOCKED: ENDBRANCH  21  22
DOCKED: ENDBRANCH   6  21
DOCKED: BRANCH   3  28
DOCKED: ATOM     28  O   UNL d   1     -11.880  -1.429   9.216 -0.10 -0.10    -0.278 OA
DOCKED: BRANCH  28  29
DOCKED: ATOM     29  P   UNL d   1     -10.394  -1.006   8.829 -0.20 +0.18    +0.473 P 
DOCKED: ATOM     30  O   UNL d   1     -10.134   0.456   8.789 -0.40 -0.08    -0.228 OA
DOCKED: BRANCH  29  31
DOCKED: ATOM     31  O   UNL d   1      -9.572  -1.862   9.903 -0.28 -0.07    -0.303 OA
DOCKED: ATOM     32  H   UNL d   1      -9.643  -1.417  10.779 +0.09 +0.05    +0.222 HD
DOCKED: ENDBRANCH  29  31
DOCKED: BRANCH  29  33
DOCKED: ATOM     33  O   UNL d   1     -10.158  -1.817   7.479 -0.62 -0.18    -0.303 OA
DOCKED: ATOM     34  H   UNL d   1     -10.995  -1.815   6.953 +0.08 +0.19    +0.222 HD
DOCKED: ENDBRANCH  29  33
DOCKED: ENDBRANCH  28  29
DOCKED: ENDBRANCH   3  28
DOCKED: BRANCH   5  35
DOCKED: ATOM     35  O   UNL d   1     -15.663  -3.575   7.616 -0.01 -0.12    -0.278 OA
DOCKED: BRANCH  35  36
DOCKED: ATOM     36  P   UNL d   1     -16.428  -2.311   8.217 +0.01 +0.14    +0.473 P 
DOCKED: ATOM     37  O   UNL d   1     -16.290  -2.116   9.693 +0.00 -0.05    -0.228 OA
DOCKED: BRANCH  36  38
DOCKED: ATOM     38  O   UNL d   1     -15.832  -1.123   7.340 +0.00 -0.13    -0.303 OA
DOCKED: ATOM     39  H   UNL d   1     -15.037  -1.443   6.862 +0.02 +0.15    +0.222 HD
DOCKED: ENDBRANCH  36  38
DOCKED: BRANCH  36  40
DOCKED: ATOM     40  O   UNL d   1     -17.901  -2.504   7.649 +0.00 -0.07    -0.303 OA
DOCKED: ATOM     41  H   UNL d   1     -18.344  -3.288   8.044 +0.00 +0.04    +0.222 HD
DOCKED: ENDBRANCH  36  40
DOCKED: ENDBRANCH  35  36
DOCKED: ENDBRANCH   5  35
DOCKED: BRANCH   4  42
DOCKED: ATOM     42  O   UNL d   1     -13.090  -2.463   6.818 -0.36 -0.33    -0.278 OA
DOCKED: BRANCH  42  43
DOCKED: ATOM     43  P   UNL d   1     -13.018  -0.968   6.266 -0.05 +0.57    +0.473 P 
DOCKED: ATOM     44  O   UNL d   1     -11.754  -0.541   5.604 -0.67 -0.30    -0.228 OA
DOCKED: BRANCH  43  45
DOCKED: ATOM     45  O   UNL d   1     -14.304  -0.877   5.334 -0.09 -0.43    -0.303 OA
DOCKED: ATOM     46  H   UNL d   1     -14.902  -0.157   5.619 +0.03 +0.17    +0.222 HD
DOCKED: ENDBRANCH  43  45
DOCKED: BRANCH  43  47
DOCKED: ATOM     47  O   UNL d   1     -13.468  -0.089   7.529 -0.04 -0.15    -0.303 OA
DOCKED: ATOM     48  H   UNL d   1     -13.781  -0.685   8.241 +0.04 +0.10    +0.222 HD
DOCKED: ENDBRANCH  43  47
DOCKED: ENDBRANCH  42  43
DOCKED: ENDBRANCH   4  42
DOCKED: TORSDOF 24
DOCKED: TER
DOCKED: ENDMDL
________________________________________________________________________________


	BEGINNING GENETIC ALGORITHM DOCKING 65 of 100
Run: 65 Seed: 1685015814 1271881332 [ Run 65 of 100 GA/GALS ]
Beginning LAMARCKIAN GENETIC ALGORITHM (LGA), with a maximum of 25000000 energy evaluations.

Final-Value: -18.376


	FINAL GENETIC ALGORITHM DOCKED STATE
	_______________________________________________


Detailed state:  trans 3.519 15.792 11.300 quatxyzw 0.372573 0.172656 0.791134 -0.453306 center 0.035 0.082 -0.065 ntor 24 -179.8796 105.9764 119.5404 108.6984 -9.3562 -172.5406 -149.8125 -149.8595 102.2667 -41.3089 27.0223 -127.8100 113.7063 97.6853 -29.1033 107.1786 160.2392 -72.0462 45.4520 -5.1156 175.5484 -3.1833 19.8696 -156.2823
State:	  3.519  15.792  11.300   0.418  0.194  0.888 -126.088   -179.88  105.98  119.54  108.70   -9.36 -172.54 -149.81 -149.86  102.27  -41.31   27.02 -127.81  113.71   97.69  -29.10  107.18  160.24  -72.05   45.45   -5.12  175.55   -3.18   19.87 -156.28

DOCKED: MODEL       65
DOCKED: USER    Run = 65
DOCKED: USER    DPF = D:/Protein_go_brrr/autodock/final/mut_D99N/IHP/dock.dpf
DOCKED: USER  
DOCKED: USER    Estimated Free Energy of Binding    =   +2.77 kcal/mol  [=(1)+(2)+(3)-(4)]
DOCKED: USER    
DOCKED: USER    (1) Final Intermolecular Energy     =   -4.39 kcal/mol
DOCKED: USER        vdW + Hbond + desolv Energy     =   -4.38 kcal/mol
DOCKED: USER        Electrostatic Energy            =   -0.01 kcal/mol
DOCKED: USER    (2) Final Total Internal Energy     =  -13.99 kcal/mol
DOCKED: USER    (3) Torsional Free Energy           =   +7.16 kcal/mol
DOCKED: USER    (4) Unbound System's Energy  [=(2)] =  -13.99 kcal/mol
DOCKED: USER    
DOCKED: USER    
DOCKED: USER    NEWDPF move IHP_ideal_opt.pdbqt
DOCKED: USER    NEWDPF about 0.035000 0.082000 -0.065000
DOCKED: USER    NEWDPF tran0 3.518637 15.792301 11.299949
DOCKED: USER    NEWDPF quaternion0 0.372573 0.172656 0.791134 -0.453306
DOCKED: USER    NEWDPF axisangle0 0.417985 0.193700 0.887564 -126.088057
DOCKED: USER    NEWDPF quat0 0.417985 0.193700 0.887564 -126.088057
DOCKED: USER    NEWDPF dihe0 -179.88 105.98 119.54 108.70 -9.36 -172.54 -149.81 -149.86 102.27 -41.31 27.02 -127.81 113.71 97.69 -29.10 107.18 160.24 -72.05 45.45 -5.12 175.55 -3.18 19.87 -156.28 
DOCKED: USER  keepresnum = 1 
DOCKED: USER  
DOCKED: REMARK  24 active torsions:
DOCKED: REMARK  status: ('A' for Active; 'I' for Inactive)
DOCKED: REMARK    1  A    between atoms: C_1  and  O_7 
DOCKED: REMARK    2  A    between atoms: C_2  and  O_12 
DOCKED: REMARK    3  A    between atoms: C_3  and  O_17 
DOCKED: REMARK    4  A    between atoms: C_4  and  O_22 
DOCKED: REMARK    5  A    between atoms: C_5  and  O_27 
DOCKED: REMARK    6  A    between atoms: C_6  and  O_32 
DOCKED: REMARK    7  A    between atoms: O_7  and  P_8 
DOCKED: REMARK    8  A    between atoms: P_8  and  O_10 
DOCKED: REMARK    9  A    between atoms: P_8  and  O_11 
DOCKED: REMARK   10  A    between atoms: O_12  and  P_13 
DOCKED: REMARK   11  A    between atoms: P_13  and  O_15 
DOCKED: REMARK   12  A    between atoms: P_13  and  O_16 
DOCKED: REMARK   13  A    between atoms: O_17  and  P_18 
DOCKED: REMARK   14  A    between atoms: P_18  and  O_20 
DOCKED: REMARK   15  A    between atoms: P_18  and  O_21 
DOCKED: REMARK   16  A    between atoms: O_22  and  P_23 
DOCKED: REMARK   17  A    between atoms: P_23  and  O_25 
DOCKED: REMARK   18  A    between atoms: P_23  and  O_26 
DOCKED: REMARK   19  A    between atoms: O_27  and  P_28 
DOCKED: REMARK   20  A    between atoms: P_28  and  O_30 
DOCKED: REMARK   21  A    between atoms: P_28  and  O_31 
DOCKED: REMARK   22  A    between atoms: O_32  and  P_33 
DOCKED: REMARK   23  A    between atoms: P_33  and  O_35 
DOCKED: REMARK   24  A    between atoms: P_33  and  O_36 
DOCKED: USER                              x       y       z     vdW  Elec       q    Type
DOCKED: USER                           _______ _______ _______ _____ _____    ______ ____
DOCKED: ROOT
DOCKED: ATOM      1  C   UNL d   1       4.241  17.271  11.824 -0.04 -0.01    +0.194 C 
DOCKED: ATOM      2  C   UNL d   1       4.828  16.665  10.548 -0.09 -0.01    +0.194 C 
DOCKED: ATOM      3  C   UNL d   1       5.010  15.151  10.672 -0.16 -0.02    +0.194 C 
DOCKED: ATOM      4  C   UNL d   1       3.744  14.428  11.126 -0.22 -0.03    +0.194 C 
DOCKED: ATOM      5  C   UNL d   1       3.061  15.067  12.328 -0.14 -0.02    +0.194 C 
DOCKED: ATOM      6  C   UNL d   1       2.935  16.589  12.231 -0.08 -0.01    +0.194 C 
DOCKED: ENDROOT
DOCKED: BRANCH   1   7
DOCKED: ATOM      7  O   UNL d   1       3.943  18.646  11.569 -0.02 +0.01    -0.278 OA
DOCKED: BRANCH   7   8
DOCKED: ATOM      8  P   UNL d   1       5.148  19.694  11.551 -0.00 -0.01    +0.473 P 
DOCKED: ATOM      9  O   UNL d   1       4.824  21.018  10.952 -0.00 +0.00    -0.228 OA
DOCKED: BRANCH   8  10
DOCKED: ATOM     10  O   UNL d   1       5.600  19.789  13.078 -0.00 +0.01    -0.303 OA
DOCKED: ATOM     11  H   UNL d   1       5.317  18.985  13.553 +0.00 -0.01    +0.222 HD
DOCKED: ENDBRANCH   8  10
DOCKED: BRANCH   8  12
DOCKED: ATOM     12  O   UNL d   1       6.365  18.913  10.892 -0.00 +0.01    -0.303 OA
DOCKED: ATOM     13  H   UNL d   1       6.179  18.614   9.973 +0.01 -0.00    +0.222 HD
DOCKED: ENDBRANCH   8  12
DOCKED: ENDBRANCH   7   8
DOCKED: ENDBRANCH   1   7
DOCKED: BRANCH   2  14
DOCKED: ATOM     14  O   UNL d   1       3.940  16.930   9.454 -0.04 -0.00    -0.278 OA
DOCKED: BRANCH  14  15
DOCKED: ATOM     15  P   UNL d   1       4.580  17.637   8.168 -0.04 +0.00    +0.473 P 
DOCKED: ATOM     16  O   UNL d   1       3.912  17.376   6.855 -0.19 -0.01    -0.228 OA
DOCKED: BRANCH  15  17
DOCKED: ATOM     17  O   UNL d   1       4.608  19.184   8.550 -0.03 -0.00    -0.303 OA
DOCKED: ATOM     18  H   UNL d   1       4.610  19.307   9.519 +0.02 -0.00    +0.222 HD
DOCKED: ENDBRANCH  15  17
DOCKED: BRANCH  15  19
DOCKED: ATOM     19  O   UNL d   1       6.125  17.263   8.238 -0.04 +0.01    -0.303 OA
DOCKED: ATOM     20  H   UNL d   1       6.259  16.309   8.384 +0.06 -0.01    +0.222 HD
DOCKED: ENDBRANCH  15  19
DOCKED: ENDBRANCH  14  15
DOCKED: ENDBRANCH   2  14
DOCKED: BRANCH   6  21
DOCKED: ATOM     21  O   UNL d   1       2.606  17.059  13.537 -0.02 +0.02    -0.278 OA
DOCKED: BRANCH  21  22
DOCKED: ATOM     22  P   UNL d   1       3.721  17.069  14.678 -0.01 -0.04    +0.473 P 
DOCKED: ATOM     23  O   UNL d   1       5.093  16.602  14.327 -0.02 +0.01    -0.228 OA
DOCKED: BRANCH  22  24
DOCKED: ATOM     24  O   UNL d   1       3.640  18.571  15.199 -0.00 +0.02    -0.303 OA
DOCKED: ATOM     25  H   UNL d   1       4.080  19.153  14.529 +0.00 -0.01    +0.222 HD
DOCKED: ENDBRANCH  22  24
DOCKED: BRANCH  22  26
DOCKED: ATOM     26  O   UNL d   1       2.986  16.270  15.858 -0.06 +0.05    -0.303 OA
DOCKED: ATOM     27  H   UNL d   1       2.190  15.826  15.499 -0.02 -0.06    +0.222 HD
DOCKED: ENDBRANCH  22  26
DOCKED: ENDBRANCH  21  22
DOCKED: ENDBRANCH   6  21
DOCKED: BRANCH   3  28
DOCKED: ATOM     28  O   UNL d   1       5.288  14.645   9.373 -0.23 +0.05    -0.278 OA
DOCKED: BRANCH  28  29
DOCKED: ATOM     29  P   UNL d   1       6.755  14.149   8.999 -0.18 -0.08    +0.473 P 
DOCKED: ATOM     30  O   UNL d   1       7.100  12.776   9.447 -0.26 +0.04    -0.228 OA
DOCKED: BRANCH  29  31
DOCKED: ATOM     31  O   UNL d   1       6.748  14.419   7.422 -0.19 +0.06    -0.303 OA
DOCKED: ATOM     32  H   UNL d   1       6.546  13.573   6.960 -0.39 -0.10    +0.222 HD
DOCKED: ENDBRANCH  29  31
DOCKED: BRANCH  29  33
DOCKED: ATOM     33  O   UNL d   1       7.660  15.336   9.555 -0.03 +0.02    -0.303 OA
DOCKED: ATOM     34  H   UNL d   1       7.790  16.004   8.837 +0.03 -0.01    +0.222 HD
DOCKED: ENDBRANCH  29  33
DOCKED: ENDBRANCH  28  29
DOCKED: ENDBRANCH   3  28
DOCKED: BRANCH   5  35
DOCKED: ATOM     35  O   UNL d   1       1.738  14.536  12.349 -0.18 +0.03    -0.278 OA
DOCKED: BRANCH  35  36
DOCKED: ATOM     36  P   UNL d   1       0.959  14.373  13.731 -0.18 -0.12    +0.473 P 
DOCKED: ATOM     37  O   UNL d   1      -0.116  13.332  13.746 -0.90 +0.08    -0.228 OA
DOCKED: BRANCH  36  38
DOCKED: ATOM     38  O   UNL d   1       2.152  14.096  14.748 -0.16 +0.10    -0.303 OA
DOCKED: ATOM     39  H   UNL d   1       2.951  14.579  14.445 +0.08 -0.04    +0.222 HD
DOCKED: ENDBRANCH  36  38
DOCKED: BRANCH  36  40
DOCKED: ATOM     40  O   UNL d   1       0.521  15.867  14.053 -0.10 +0.06    -0.303 OA
DOCKED: ATOM     41  H   UNL d   1       1.244  16.374  14.484 +0.05 -0.04    +0.222 HD
DOCKED: ENDBRANCH  36  40
DOCKED: ENDBRANCH  35  36
DOCKED: ENDBRANCH   5  35
DOCKED: BRANCH   4  42
DOCKED: ATOM     42  O   UNL d   1       4.138  13.109  11.518 -0.20 +0.07    -0.278 OA
DOCKED: BRANCH  42  43
DOCKED: ATOM     43  P   UNL d   1       4.500  12.834  13.047 -0.19 -0.04    +0.473 P 
DOCKED: ATOM     44  O   UNL d   1       4.992  13.986  13.854 -0.12 +0.01    -0.228 OA
DOCKED: BRANCH  43  45
DOCKED: ATOM     45  O   UNL d   1       3.168  12.169  13.607 -0.34 +0.03    -0.303 OA
DOCKED: ATOM     46  H   UNL d   1       2.374  12.664  13.322 +0.15 -0.03    +0.222 HD
DOCKED: ENDBRANCH  43  45
DOCKED: BRANCH  43  47
DOCKED: ATOM     47  O   UNL d   1       5.487  11.573  12.969 +0.02 -0.00    -0.303 OA
DOCKED: ATOM     48  H   UNL d   1       6.198  11.759  12.322 +0.08 -0.01    +0.222 HD
DOCKED: ENDBRANCH  43  47
DOCKED: ENDBRANCH  42  43
DOCKED: ENDBRANCH   4  42
DOCKED: TORSDOF 24
DOCKED: TER
DOCKED: ENDMDL
________________________________________________________________________________


	BEGINNING GENETIC ALGORITHM DOCKING 66 of 100
Run: 66 Seed: 534063990 720868082 [ Run 66 of 100 GA/GALS ]
Beginning LAMARCKIAN GENETIC ALGORITHM (LGA), with a maximum of 25000000 energy evaluations.

Final-Value: -18.279


	FINAL GENETIC ALGORITHM DOCKED STATE
	_______________________________________________


Detailed state:  trans 2.590 -16.530 2.858 quatxyzw -0.296700 -0.517299 0.689636 -0.410820 center 0.035 0.082 -0.065 ntor 24 168.1545 -28.9406 122.0214 -47.3244 118.3923 84.5295 45.7956 -83.1667 -25.3751 83.7930 17.4082 178.8451 35.7620 85.6931 108.1774 -109.6951 -83.3214 -147.7374 39.3598 -10.7258 -59.5319 46.2162 50.7910 -41.7693
State:	  2.590 -16.530   2.858  -0.325 -0.567  0.756 -131.487    168.15  -28.94  122.02  -47.32  118.39   84.53   45.80  -83.17  -25.38   83.79   17.41  178.85   35.76   85.69  108.18 -109.70  -83.32 -147.74   39.36  -10.73  -59.53   46.22   50.79  -41.77

DOCKED: MODEL       66
DOCKED: USER    Run = 66
DOCKED: USER    DPF = D:/Protein_go_brrr/autodock/final/mut_D99N/IHP/dock.dpf
DOCKED: USER  
DOCKED: USER    Estimated Free Energy of Binding    =   +1.62 kcal/mol  [=(1)+(2)+(3)-(4)]
DOCKED: USER    
DOCKED: USER    (1) Final Intermolecular Energy     =   -5.54 kcal/mol
DOCKED: USER        vdW + Hbond + desolv Energy     =   -5.43 kcal/mol
DOCKED: USER        Electrostatic Energy            =   -0.11 kcal/mol
DOCKED: USER    (2) Final Total Internal Energy     =  -12.74 kcal/mol
DOCKED: USER    (3) Torsional Free Energy           =   +7.16 kcal/mol
DOCKED: USER    (4) Unbound System's Energy  [=(2)] =  -12.74 kcal/mol
DOCKED: USER    
DOCKED: USER    
DOCKED: USER    NEWDPF move IHP_ideal_opt.pdbqt
DOCKED: USER    NEWDPF about 0.035000 0.082000 -0.065000
DOCKED: USER    NEWDPF tran0 2.589795 -16.530392 2.858223
DOCKED: USER    NEWDPF quaternion0 -0.296700 -0.517299 0.689636 -0.410820
DOCKED: USER    NEWDPF axisangle0 -0.325430 -0.567390 0.756415 -131.487321
DOCKED: USER    NEWDPF quat0 -0.325430 -0.567390 0.756415 -131.487321
DOCKED: USER    NEWDPF dihe0 168.15 -28.94 122.02 -47.32 118.39 84.53 45.80 -83.17 -25.38 83.79 17.41 178.85 35.76 85.69 108.18 -109.70 -83.32 -147.74 39.36 -10.73 -59.53 46.22 50.79 -41.77 
DOCKED: USER  keepresnum = 1 
DOCKED: USER  
DOCKED: REMARK  24 active torsions:
DOCKED: REMARK  status: ('A' for Active; 'I' for Inactive)
DOCKED: REMARK    1  A    between atoms: C_1  and  O_7 
DOCKED: REMARK    2  A    between atoms: C_2  and  O_12 
DOCKED: REMARK    3  A    between atoms: C_3  and  O_17 
DOCKED: REMARK    4  A    between atoms: C_4  and  O_22 
DOCKED: REMARK    5  A    between atoms: C_5  and  O_27 
DOCKED: REMARK    6  A    between atoms: C_6  and  O_32 
DOCKED: REMARK    7  A    between atoms: O_7  and  P_8 
DOCKED: REMARK    8  A    between atoms: P_8  and  O_10 
DOCKED: REMARK    9  A    between atoms: P_8  and  O_11 
DOCKED: REMARK   10  A    between atoms: O_12  and  P_13 
DOCKED: REMARK   11  A    between atoms: P_13  and  O_15 
DOCKED: REMARK   12  A    between atoms: P_13  and  O_16 
DOCKED: REMARK   13  A    between atoms: O_17  and  P_18 
DOCKED: REMARK   14  A    between atoms: P_18  and  O_20 
DOCKED: REMARK   15  A    between atoms: P_18  and  O_21 
DOCKED: REMARK   16  A    between atoms: O_22  and  P_23 
DOCKED: REMARK   17  A    between atoms: P_23  and  O_25 
DOCKED: REMARK   18  A    between atoms: P_23  and  O_26 
DOCKED: REMARK   19  A    between atoms: O_27  and  P_28 
DOCKED: REMARK   20  A    between atoms: P_28  and  O_30 
DOCKED: REMARK   21  A    between atoms: P_28  and  O_31 
DOCKED: REMARK   22  A    between atoms: O_32  and  P_33 
DOCKED: REMARK   23  A    between atoms: P_33  and  O_35 
DOCKED: REMARK   24  A    between atoms: P_33  and  O_36 
DOCKED: USER                              x       y       z     vdW  Elec       q    Type
DOCKED: USER                           _______ _______ _______ _____ _____    ______ ____
DOCKED: ROOT
DOCKED: ATOM      1  C   UNL d   1       1.551 -15.694   3.956 -0.13 -0.04    +0.194 C 
DOCKED: ATOM      2  C   UNL d   1       2.675 -16.509   4.600 -0.13 -0.04    +0.194 C 
DOCKED: ATOM      3  C   UNL d   1       2.836 -17.877   3.934 -0.07 -0.04    +0.194 C 
DOCKED: ATOM      4  C   UNL d   1       2.979 -17.794   2.416 +0.02 -0.05    +0.194 C 
DOCKED: ATOM      5  C   UNL d   1       1.947 -16.898   1.743 -0.11 -0.03    +0.194 C 
DOCKED: ATOM      6  C   UNL d   1       1.741 -15.554   2.446 -0.19 -0.05    +0.194 C 
DOCKED: ENDROOT
DOCKED: BRANCH   1   7
DOCKED: ATOM      7  O   UNL d   1       1.579 -14.378   4.513 -0.19 +0.09    -0.278 OA
DOCKED: BRANCH   7   8
DOCKED: ATOM      8  P   UNL d   1       0.851 -14.130   5.913 -0.16 -0.07    +0.473 P 
DOCKED: ATOM      9  O   UNL d   1       1.689 -14.390   7.116 -0.20 +0.03    -0.228 OA
DOCKED: BRANCH   8  10
DOCKED: ATOM     10  O   UNL d   1       0.336 -12.623   5.820 -0.81 -0.02    -0.303 OA
DOCKED: ATOM     11  H   UNL d   1       0.441 -12.298   4.906 +0.03 +0.02    +0.222 HD
DOCKED: ENDBRANCH   8  10
DOCKED: BRANCH   8  12
DOCKED: ATOM     12  O   UNL d   1      -0.507 -14.951   5.823 -0.03 +0.03    -0.303 OA
DOCKED: ATOM     13  H   UNL d   1      -1.176 -14.527   5.241 +0.06 -0.02    +0.222 HD
DOCKED: ENDBRANCH   8  12
DOCKED: ENDBRANCH   7   8
DOCKED: ENDBRANCH   1   7
DOCKED: BRANCH   2  14
DOCKED: ATOM     14  O   UNL d   1       3.907 -15.789   4.469 -0.25 +0.10    -0.278 OA
DOCKED: BRANCH  14  15
DOCKED: ATOM     15  P   UNL d   1       4.664 -15.413   5.829 -0.22 -0.12    +0.473 P 
DOCKED: ATOM     16  O   UNL d   1       6.157 -15.518   5.817 -0.23 +0.06    -0.228 OA
DOCKED: BRANCH  15  17
DOCKED: ATOM     17  O   UNL d   1       4.151 -13.943   6.164 -0.19 +0.10    -0.303 OA
DOCKED: ATOM     18  H   UNL d   1       3.268 -13.782   5.779 -0.20 -0.10    +0.222 HD
DOCKED: ENDBRANCH  15  17
DOCKED: BRANCH  15  19
DOCKED: ATOM     19  O   UNL d   1       3.925 -16.272   6.945 -0.05 +0.04    -0.303 OA
DOCKED: ATOM     20  H   UNL d   1       3.361 -15.715   7.513 +0.06 -0.03    +0.222 HD
DOCKED: ENDBRANCH  15  19
DOCKED: ENDBRANCH  14  15
DOCKED: ENDBRANCH   2  14
DOCKED: BRANCH   6  21
DOCKED: ATOM     21  O   UNL d   1       0.539 -14.995   1.923 -0.08 +0.04    -0.278 OA
DOCKED: BRANCH  21  22
DOCKED: ATOM     22  P   UNL d   1       0.247 -13.437   2.099 -0.13 -0.08    +0.473 P 
DOCKED: ATOM     23  O   UNL d   1      -0.329 -12.692   0.943 -0.32 +0.02    -0.228 OA
DOCKED: BRANCH  22  24
DOCKED: ATOM     24  O   UNL d   1      -0.647 -13.420   3.416 -0.10 +0.03    -0.303 OA
DOCKED: ATOM     25  H   UNL d   1      -0.166 -13.923   4.122 +0.08 -0.03    +0.222 HD
DOCKED: ENDBRANCH  22  24
DOCKED: BRANCH  22  26
DOCKED: ATOM     26  O   UNL d   1       1.655 -12.903   2.649 -0.24 +0.14    -0.303 OA
DOCKED: ATOM     27  H   UNL d   1       1.659 -12.953   3.626 -0.42 -0.14    +0.222 HD
DOCKED: ENDBRANCH  22  26
DOCKED: ENDBRANCH  21  22
DOCKED: ENDBRANCH   6  21
DOCKED: BRANCH   3  28
DOCKED: ATOM     28  O   UNL d   1       4.057 -18.438   4.398 -0.06 +0.05    -0.278 OA
DOCKED: BRANCH  28  29
DOCKED: ATOM     29  P   UNL d   1       4.281 -20.015   4.365 -0.01 -0.04    +0.473 P 
DOCKED: ATOM     30  O   UNL d   1       4.887 -20.602   5.588 -0.01 +0.01    -0.228 OA
DOCKED: BRANCH  29  31
DOCKED: ATOM     31  O   UNL d   1       2.805 -20.499   3.981 -0.00 +0.02    -0.303 OA
DOCKED: ATOM     32  H   UNL d   1       2.770 -20.659   3.010 +0.01 -0.01    +0.222 HD
DOCKED: ENDBRANCH  29  31
DOCKED: BRANCH  29  33
DOCKED: ATOM     33  O   UNL d   1       5.081 -20.210   3.002 -0.03 +0.03    -0.303 OA
DOCKED: ATOM     34  H   UNL d   1       4.881 -19.450   2.401 +0.02 -0.03    +0.222 HD
DOCKED: ENDBRANCH  29  33
DOCKED: ENDBRANCH  28  29
DOCKED: ENDBRANCH   3  28
DOCKED: BRANCH   5  35
DOCKED: ATOM     35  O   UNL d   1       2.465 -16.618   0.445 -0.12 +0.03    -0.278 OA
DOCKED: BRANCH  35  36
DOCKED: ATOM     36  P   UNL d   1       1.663 -15.668  -0.554 -0.12 -0.04    +0.473 P 
DOCKED: ATOM     37  O   UNL d   1       0.176 -15.831  -0.545 -0.06 +0.02    -0.228 OA
DOCKED: BRANCH  36  38
DOCKED: ATOM     38  O   UNL d   1       2.166 -14.225  -0.107 -0.26 +0.07    -0.303 OA
DOCKED: ATOM     39  H   UNL d   1       1.523 -13.844   0.530 +0.10 -0.06    +0.222 HD
DOCKED: ENDBRANCH  36  38
DOCKED: BRANCH  36  40
DOCKED: ATOM     40  O   UNL d   1       2.408 -15.921  -1.937 -0.16 +0.01    -0.303 OA
DOCKED: ATOM     41  H   UNL d   1       2.610 -16.873  -2.072 +0.07 -0.01    +0.222 HD
DOCKED: ENDBRANCH  36  40
DOCKED: ENDBRANCH  35  36
DOCKED: ENDBRANCH   5  35
DOCKED: BRANCH   4  42
DOCKED: ATOM     42  O   UNL d   1       2.783 -19.118   1.908 -0.05 +0.03    -0.278 OA
DOCKED: BRANCH  42  43
DOCKED: ATOM     43  P   UNL d   1       3.475 -19.525   0.530 -0.05 -0.03    +0.473 P 
DOCKED: ATOM     44  O   UNL d   1       2.617 -19.550  -0.688 -0.03 +0.01    -0.228 OA
DOCKED: BRANCH  43  45
DOCKED: ATOM     45  O   UNL d   1       4.701 -18.515   0.442 -0.11 +0.04    -0.303 OA
DOCKED: ATOM     46  H   UNL d   1       4.404 -17.585   0.507 -0.37 -0.03    +0.222 HD
DOCKED: ENDBRANCH  43  45
DOCKED: BRANCH  43  47
DOCKED: ATOM     47  O   UNL d   1       4.213 -20.903   0.884 -0.01 +0.01    -0.303 OA
DOCKED: ATOM     48  H   UNL d   1       4.078 -21.107   1.833 +0.01 -0.01    +0.222 HD
DOCKED: ENDBRANCH  43  47
DOCKED: ENDBRANCH  42  43
DOCKED: ENDBRANCH   4  42
DOCKED: TORSDOF 24
DOCKED: TER
DOCKED: ENDMDL
________________________________________________________________________________


	BEGINNING GENETIC ALGORITHM DOCKING 67 of 100
Run: 67 Seed: 309897725 320591477 [ Run 67 of 100 GA/GALS ]
Beginning LAMARCKIAN GENETIC ALGORITHM (LGA), with a maximum of 25000000 energy evaluations.

Final-Value: -19.053


	FINAL GENETIC ALGORITHM DOCKED STATE
	_______________________________________________


Detailed state:  trans 9.501 -13.603 8.772 quatxyzw -0.479161 0.145825 -0.792753 0.347394 center 0.035 0.082 -0.065 ntor 24 10.0969 113.7307 -123.1097 18.3158 105.4319 113.8328 168.6842 88.8597 -29.6267 71.0344 80.9488 -168.6371 -63.2590 -180.0000 180.0000 -85.2462 -41.7050 163.7180 -154.3700 -5.2904 6.3867 -23.4510 172.2240 3.0492
State:	  9.501 -13.603   8.772  -0.511  0.156 -0.845 139.344     10.10  113.73 -123.11   18.32  105.43  113.83  168.68   88.86  -29.63   71.03   80.95 -168.64  -63.26 -180.00  180.00  -85.25  -41.70  163.72 -154.37   -5.29    6.39  -23.45  172.22    3.05

DOCKED: MODEL       67
DOCKED: USER    Run = 67
DOCKED: USER    DPF = D:/Protein_go_brrr/autodock/final/mut_D99N/IHP/dock.dpf
DOCKED: USER  
DOCKED: USER    Estimated Free Energy of Binding    =   +0.87 kcal/mol  [=(1)+(2)+(3)-(4)]
DOCKED: USER    
DOCKED: USER    (1) Final Intermolecular Energy     =   -6.28 kcal/mol
DOCKED: USER        vdW + Hbond + desolv Energy     =   -5.87 kcal/mol
DOCKED: USER        Electrostatic Energy            =   -0.42 kcal/mol
DOCKED: USER    (2) Final Total Internal Energy     =  -12.77 kcal/mol
DOCKED: USER    (3) Torsional Free Energy           =   +7.16 kcal/mol
DOCKED: USER    (4) Unbound System's Energy  [=(2)] =  -12.77 kcal/mol
DOCKED: USER    
DOCKED: USER    
DOCKED: USER    NEWDPF move IHP_ideal_opt.pdbqt
DOCKED: USER    NEWDPF about 0.035000 0.082000 -0.065000
DOCKED: USER    NEWDPF tran0 9.501496 -13.603280 8.771785
DOCKED: USER    NEWDPF quaternion0 -0.479161 0.145825 -0.792753 0.347394
DOCKED: USER    NEWDPF axisangle0 -0.510985 0.155511 -0.845405 139.343949
DOCKED: USER    NEWDPF quat0 -0.510985 0.155511 -0.845405 139.343949
DOCKED: USER    NEWDPF dihe0 10.10 113.73 -123.11 18.32 105.43 113.83 168.68 88.86 -29.63 71.03 80.95 -168.64 -63.26 -180.00 180.00 -85.25 -41.70 163.72 -154.37 -5.29 6.39 -23.45 172.22 3.05 
DOCKED: USER  keepresnum = 1 
DOCKED: USER  
DOCKED: REMARK  24 active torsions:
DOCKED: REMARK  status: ('A' for Active; 'I' for Inactive)
DOCKED: REMARK    1  A    between atoms: C_1  and  O_7 
DOCKED: REMARK    2  A    between atoms: C_2  and  O_12 
DOCKED: REMARK    3  A    between atoms: C_3  and  O_17 
DOCKED: REMARK    4  A    between atoms: C_4  and  O_22 
DOCKED: REMARK    5  A    between atoms: C_5  and  O_27 
DOCKED: REMARK    6  A    between atoms: C_6  and  O_32 
DOCKED: REMARK    7  A    between atoms: O_7  and  P_8 
DOCKED: REMARK    8  A    between atoms: P_8  and  O_10 
DOCKED: REMARK    9  A    between atoms: P_8  and  O_11 
DOCKED: REMARK   10  A    between atoms: O_12  and  P_13 
DOCKED: REMARK   11  A    between atoms: P_13  and  O_15 
DOCKED: REMARK   12  A    between atoms: P_13  and  O_16 
DOCKED: REMARK   13  A    between atoms: O_17  and  P_18 
DOCKED: REMARK   14  A    between atoms: P_18  and  O_20 
DOCKED: REMARK   15  A    between atoms: P_18  and  O_21 
DOCKED: REMARK   16  A    between atoms: O_22  and  P_23 
DOCKED: REMARK   17  A    between atoms: P_23  and  O_25 
DOCKED: REMARK   18  A    between atoms: P_23  and  O_26 
DOCKED: REMARK   19  A    between atoms: O_27  and  P_28 
DOCKED: REMARK   20  A    between atoms: P_28  and  O_30 
DOCKED: REMARK   21  A    between atoms: P_28  and  O_31 
DOCKED: REMARK   22  A    between atoms: O_32  and  P_33 
DOCKED: REMARK   23  A    between atoms: P_33  and  O_35 
DOCKED: REMARK   24  A    between atoms: P_33  and  O_36 
DOCKED: USER                              x       y       z     vdW  Elec       q    Type
DOCKED: USER                           _______ _______ _______ _____ _____    ______ ____
DOCKED: ROOT
DOCKED: ATOM      1  C   UNL d   1      10.260 -12.899  10.154 -0.01 -0.05    +0.194 C 
DOCKED: ATOM      2  C   UNL d   1      10.946 -12.628   8.814 -0.04 -0.05    +0.194 C 
DOCKED: ATOM      3  C   UNL d   1      11.007 -13.885   7.944 -0.05 -0.04    +0.194 C 
DOCKED: ATOM      4  C   UNL d   1       9.650 -14.563   7.772 -0.07 -0.03    +0.194 C 
DOCKED: ATOM      5  C   UNL d   1       8.879 -14.750   9.073 -0.02 -0.03    +0.194 C 
DOCKED: ATOM      6  C   UNL d   1       8.871 -13.511   9.971 -0.02 -0.05    +0.194 C 
DOCKED: ENDROOT
DOCKED: BRANCH   1   7
DOCKED: ATOM      7  O   UNL d   1      10.090 -11.650  10.829 -0.02 +0.10    -0.278 OA
DOCKED: BRANCH   7   8
DOCKED: ATOM      8  P   UNL d   1       8.825 -10.749  10.450 -0.08 -0.35    +0.473 P 
DOCKED: ATOM      9  O   UNL d   1       8.087 -11.179   9.232 -0.18 +0.13    -0.228 OA
DOCKED: BRANCH   8  10
DOCKED: ATOM     10  O   UNL d   1       7.928 -10.770  11.769 -0.10 +0.37    -0.303 OA
DOCKED: ATOM     11  H   UNL d   1       6.985 -10.718  11.523 -0.53 -0.44    +0.222 HD
DOCKED: ENDBRANCH   8  10
DOCKED: BRANCH   8  12
DOCKED: ATOM     12  O   UNL d   1       9.369  -9.256  10.442 -0.37 +0.26    -0.303 OA
DOCKED: ATOM     13  H   UNL d   1       9.995  -9.078   9.704 +0.08 -0.11    +0.222 HD
DOCKED: ENDBRANCH   8  12
DOCKED: ENDBRANCH   7   8
DOCKED: ENDBRANCH   1   7
DOCKED: BRANCH   2  14
DOCKED: ATOM     14  O   UNL d   1      10.211 -11.620   8.109 -0.09 +0.08    -0.278 OA
DOCKED: BRANCH  14  15
DOCKED: ATOM     15  P   UNL d   1      11.042 -10.345   7.611 -0.18 -0.17    +0.473 P 
DOCKED: ATOM     16  O   UNL d   1      10.547  -9.004   8.055 -0.48 +0.06    -0.228 OA
DOCKED: BRANCH  15  17
DOCKED: ATOM     17  O   UNL d   1      12.532 -10.642   8.090 -0.11 +0.13    -0.303 OA
DOCKED: ATOM     18  H   UNL d   1      13.181 -10.356   7.418 -0.35 -0.13    +0.222 HD
DOCKED: ENDBRANCH  15  17
DOCKED: BRANCH  15  19
DOCKED: ATOM     19  O   UNL d   1      11.167 -10.542   6.037 -0.13 +0.11    -0.303 OA
DOCKED: ATOM     20  H   UNL d   1      11.356 -11.470   5.804 +0.11 -0.07    +0.222 HD
DOCKED: ENDBRANCH  15  19
DOCKED: ENDBRANCH  14  15
DOCKED: ENDBRANCH   2  14
DOCKED: BRANCH   6  21
DOCKED: ATOM     21  O   UNL d   1       8.428 -13.937  11.257 -0.00 +0.06    -0.278 OA
DOCKED: BRANCH  21  22
DOCKED: ATOM     22  P   UNL d   1       6.891 -13.784  11.656 -0.02 -0.12    +0.473 P 
DOCKED: ATOM     23  O   UNL d   1       6.554 -13.568  13.093 -0.02 +0.06    -0.228 OA
DOCKED: BRANCH  22  24
DOCKED: ATOM     24  O   UNL d   1       6.415 -12.623  10.677 -0.52 +0.11    -0.303 OA
DOCKED: ATOM     25  H   UNL d   1       6.847 -12.766   9.797 +0.06 -0.07    +0.222 HD
DOCKED: ENDBRANCH  22  24
DOCKED: BRANCH  22  26
DOCKED: ATOM     26  O   UNL d   1       6.246 -15.081  10.970 -0.02 +0.04    -0.303 OA
DOCKED: ATOM     27  H   UNL d   1       6.397 -15.043  10.004 +0.03 -0.03    +0.222 HD
DOCKED: ENDBRANCH  22  26
DOCKED: ENDBRANCH  21  22
DOCKED: ENDBRANCH   6  21
DOCKED: BRANCH   3  28
DOCKED: ATOM     28  O   UNL d   1      11.397 -13.483   6.638 -0.10 +0.06    -0.278 OA
DOCKED: BRANCH  28  29
DOCKED: ATOM     29  P   UNL d   1      12.940 -13.364   6.260 -0.10 -0.19    +0.473 P 
DOCKED: ATOM     30  O   UNL d   1      13.437 -11.984   6.025 -0.24 +0.12    -0.228 OA
DOCKED: BRANCH  29  31
DOCKED: ATOM     31  O   UNL d   1      13.589 -14.172   7.479 -0.02 +0.07    -0.303 OA
DOCKED: ATOM     32  H   UNL d   1      14.404 -13.701   7.769 +0.04 -0.06    +0.222 HD
DOCKED: ENDBRANCH  29  31
DOCKED: BRANCH  29  33
DOCKED: ATOM     33  O   UNL d   1      13.068 -14.390   5.049 -0.17 +0.15    -0.303 OA
DOCKED: ATOM     34  H   UNL d   1      13.758 -14.063   4.422 -0.49 -0.32    +0.222 HD
DOCKED: ENDBRANCH  29  33
DOCKED: ENDBRANCH  28  29
DOCKED: ENDBRANCH   3  28
DOCKED: BRANCH   5  35
DOCKED: ATOM     35  O   UNL d   1       7.529 -15.000   8.690 -0.04 +0.05    -0.278 OA
DOCKED: BRANCH  35  36
DOCKED: ATOM     36  P   UNL d   1       6.740 -13.947   7.788 -0.12 -0.12    +0.473 P 
DOCKED: ATOM     37  O   UNL d   1       7.530 -12.757   7.345 -0.20 +0.09    -0.228 OA
DOCKED: BRANCH  36  38
DOCKED: ATOM     38  O   UNL d   1       6.217 -14.865   6.596 -0.17 +0.09    -0.303 OA
DOCKED: ATOM     39  H   UNL d   1       6.809 -14.754   5.822 -0.33 -0.11    +0.222 HD
DOCKED: ENDBRANCH  36  38
DOCKED: BRANCH  36  40
DOCKED: ATOM     40  O   UNL d   1       5.436 -13.666   8.655 -0.14 +0.04    -0.303 OA
DOCKED: ATOM     41  H   UNL d   1       5.609 -13.772   9.617 +0.05 -0.03    +0.222 HD
DOCKED: ENDBRANCH  36  40
DOCKED: ENDBRANCH  35  36
DOCKED: ENDBRANCH   5  35
DOCKED: BRANCH   4  42
DOCKED: ATOM     42  O   UNL d   1       9.903 -15.869   7.242 -0.04 +0.03    -0.278 OA
DOCKED: BRANCH  42  43
DOCKED: ATOM     43  P   UNL d   1       9.530 -16.169   5.720 -0.11 -0.02    +0.473 P 
DOCKED: ATOM     44  O   UNL d   1       9.156 -17.567   5.368 -0.11 -0.00    -0.228 OA
DOCKED: BRANCH  43  45
DOCKED: ATOM     45  O   UNL d   1       8.392 -15.097   5.422 -0.00 +0.06    -0.303 OA
DOCKED: ATOM     46  H   UNL d   1       8.295 -14.463   6.161 -0.33 -0.08    +0.222 HD
DOCKED: ENDBRANCH  43  45
DOCKED: BRANCH  43  47
DOCKED: ATOM     47  O   UNL d   1      10.772 -15.560   4.911 -0.17 -0.01    -0.303 OA
DOCKED: ATOM     48  H   UNL d   1      11.484 -15.326   5.541 +0.06 -0.01    +0.222 HD
DOCKED: ENDBRANCH  43  47
DOCKED: ENDBRANCH  42  43
DOCKED: ENDBRANCH   4  42
DOCKED: TORSDOF 24
DOCKED: TER
DOCKED: ENDMDL
________________________________________________________________________________


	BEGINNING GENETIC ALGORITHM DOCKING 68 of 100
Run: 68 Seed: 943389025 1531871750 [ Run 68 of 100 GA/GALS ]
Beginning LAMARCKIAN GENETIC ALGORITHM (LGA), with a maximum of 25000000 energy evaluations.

Final-Value: -17.228


	FINAL GENETIC ALGORITHM DOCKED STATE
	_______________________________________________


Detailed state:  trans 1.183 -15.759 -9.110 quatxyzw -0.519948 0.421688 -0.045064 0.741487 center 0.035 0.082 -0.065 ntor 24 117.6794 142.1500 -57.1991 149.4241 36.4069 -154.0365 -44.7941 122.9540 114.1885 -41.4562 87.0989 -54.4530 -25.9399 -30.2180 -46.4602 -55.4301 158.8910 30.4438 31.1463 -45.8737 166.5624 15.3504 24.2308 -176.1911
State:	  1.183 -15.759  -9.110  -0.775  0.628 -0.067 84.284    117.68  142.15  -57.20  149.42   36.41 -154.04  -44.79  122.95  114.19  -41.46   87.10  -54.45  -25.94  -30.22  -46.46  -55.43  158.89   30.44   31.15  -45.87  166.56   15.35   24.23 -176.19

DOCKED: MODEL       68
DOCKED: USER    Run = 68
DOCKED: USER    DPF = D:/Protein_go_brrr/autodock/final/mut_D99N/IHP/dock.dpf
DOCKED: USER  
DOCKED: USER    Estimated Free Energy of Binding    =   +2.93 kcal/mol  [=(1)+(2)+(3)-(4)]
DOCKED: USER    
DOCKED: USER    (1) Final Intermolecular Energy     =   -4.23 kcal/mol
DOCKED: USER        vdW + Hbond + desolv Energy     =   -3.98 kcal/mol
DOCKED: USER        Electrostatic Energy            =   -0.25 kcal/mol
DOCKED: USER    (2) Final Total Internal Energy     =  -13.00 kcal/mol
DOCKED: USER    (3) Torsional Free Energy           =   +7.16 kcal/mol
DOCKED: USER    (4) Unbound System's Energy  [=(2)] =  -13.00 kcal/mol
DOCKED: USER    
DOCKED: USER    
DOCKED: USER    NEWDPF move IHP_ideal_opt.pdbqt
DOCKED: USER    NEWDPF about 0.035000 0.082000 -0.065000
DOCKED: USER    NEWDPF tran0 1.182799 -15.759055 -9.110282
DOCKED: USER    NEWDPF quaternion0 -0.519948 0.421688 -0.045064 0.741487
DOCKED: USER    NEWDPF axisangle0 -0.774923 0.628477 -0.067163 84.283566
DOCKED: USER    NEWDPF quat0 -0.774923 0.628477 -0.067163 84.283566
DOCKED: USER    NEWDPF dihe0 117.68 142.15 -57.20 149.42 36.41 -154.04 -44.79 122.95 114.19 -41.46 87.10 -54.45 -25.94 -30.22 -46.46 -55.43 158.89 30.44 31.15 -45.87 166.56 15.35 24.23 -176.19 
DOCKED: USER  keepresnum = 1 
DOCKED: USER  
DOCKED: REMARK  24 active torsions:
DOCKED: REMARK  status: ('A' for Active; 'I' for Inactive)
DOCKED: REMARK    1  A    between atoms: C_1  and  O_7 
DOCKED: REMARK    2  A    between atoms: C_2  and  O_12 
DOCKED: REMARK    3  A    between atoms: C_3  and  O_17 
DOCKED: REMARK    4  A    between atoms: C_4  and  O_22 
DOCKED: REMARK    5  A    between atoms: C_5  and  O_27 
DOCKED: REMARK    6  A    between atoms: C_6  and  O_32 
DOCKED: REMARK    7  A    between atoms: O_7  and  P_8 
DOCKED: REMARK    8  A    between atoms: P_8  and  O_10 
DOCKED: REMARK    9  A    between atoms: P_8  and  O_11 
DOCKED: REMARK   10  A    between atoms: O_12  and  P_13 
DOCKED: REMARK   11  A    between atoms: P_13  and  O_15 
DOCKED: REMARK   12  A    between atoms: P_13  and  O_16 
DOCKED: REMARK   13  A    between atoms: O_17  and  P_18 
DOCKED: REMARK   14  A    between atoms: P_18  and  O_20 
DOCKED: REMARK   15  A    between atoms: P_18  and  O_21 
DOCKED: REMARK   16  A    between atoms: O_22  and  P_23 
DOCKED: REMARK   17  A    between atoms: P_23  and  O_25 
DOCKED: REMARK   18  A    between atoms: P_23  and  O_26 
DOCKED: REMARK   19  A    between atoms: O_27  and  P_28 
DOCKED: REMARK   20  A    between atoms: P_28  and  O_30 
DOCKED: REMARK   21  A    between atoms: P_28  and  O_31 
DOCKED: REMARK   22  A    between atoms: O_32  and  P_33 
DOCKED: REMARK   23  A    between atoms: P_33  and  O_35 
DOCKED: REMARK   24  A    between atoms: P_33  and  O_36 
DOCKED: USER                              x       y       z     vdW  Elec       q    Type
DOCKED: USER                           _______ _______ _______ _____ _____    ______ ____
DOCKED: ROOT
DOCKED: ATOM      1  C   UNL d   1       1.976 -17.269  -8.837 -0.08 +0.02    +0.194 C 
DOCKED: ATOM      2  C   UNL d   1       1.797 -16.873 -10.304 -0.09 +0.04    +0.194 C 
DOCKED: ATOM      3  C   UNL d   1       0.403 -16.301 -10.569 -0.09 +0.03    +0.194 C 
DOCKED: ATOM      4  C   UNL d   1       0.025 -15.170  -9.615 -0.21 +0.01    +0.194 C 
DOCKED: ATOM      5  C   UNL d   1       0.295 -15.479  -8.149 -0.18 +0.00    +0.194 C 
DOCKED: ATOM      6  C   UNL d   1       1.666 -16.109  -7.891 -0.03 +0.01    +0.194 C 
DOCKED: ENDROOT
DOCKED: BRANCH   1   7
DOCKED: ATOM      7  O   UNL d   1       3.345 -17.628  -8.636 -0.06 -0.04    -0.278 OA
DOCKED: BRANCH   7   8
DOCKED: ATOM      8  P   UNL d   1       3.764 -19.158  -8.820 -0.02 +0.03    +0.473 P 
DOCKED: ATOM      9  O   UNL d   1       2.888 -19.947  -9.728 -0.01 -0.01    -0.228 OA
DOCKED: BRANCH   8  10
DOCKED: ATOM     10  O   UNL d   1       5.279 -19.088  -9.314 -0.04 -0.01    -0.303 OA
DOCKED: ATOM     11  H   UNL d   1       5.382 -18.356  -9.950 +0.06 +0.02    +0.222 HD
DOCKED: ENDBRANCH   8  10
DOCKED: BRANCH   8  12
DOCKED: ATOM     12  O   UNL d   1       3.921 -19.724  -7.344 -0.03 -0.01    -0.303 OA
DOCKED: ATOM     13  H   UNL d   1       3.120 -20.196  -7.024 +0.01 +0.00    +0.222 HD
DOCKED: ENDBRANCH   8  12
DOCKED: ENDBRANCH   7   8
DOCKED: ENDBRANCH   1   7
DOCKED: BRANCH   2  14
DOCKED: ATOM     14  O   UNL d   1       2.771 -15.877 -10.641 -0.25 -0.10    -0.278 OA
DOCKED: BRANCH  14  15
DOCKED: ATOM     15  P   UNL d   1       4.210 -16.410 -11.098 -0.16 +0.13    +0.473 P 
DOCKED: ATOM     16  O   UNL d   1       4.262 -17.784 -11.687 -0.06 -0.03    -0.228 OA
DOCKED: BRANCH  15  17
DOCKED: ATOM     17  O   UNL d   1       4.738 -15.288 -12.099 +0.00 -0.13    -0.303 OA
DOCKED: ATOM     18  H   UNL d   1       5.364 -15.663 -12.748 +0.09 +0.07    +0.222 HD
DOCKED: ENDBRANCH  15  17
DOCKED: BRANCH  15  19
DOCKED: ATOM     19  O   UNL d   1       5.142 -16.171  -9.831 -0.46 -0.09    -0.303 OA
DOCKED: ATOM     20  H   UNL d   1       5.142 -16.941  -9.233 +0.08 +0.04    +0.222 HD
DOCKED: ENDBRANCH  15  19
DOCKED: ENDBRANCH  14  15
DOCKED: ENDBRANCH   2  14
DOCKED: BRANCH   6  21
DOCKED: ATOM     21  O   UNL d   1       1.631 -16.644  -6.570 -0.05 -0.01    -0.278 OA
DOCKED: BRANCH  21  22
DOCKED: ATOM     22  P   UNL d   1       0.630 -17.837  -6.225 -0.02 +0.00    +0.473 P 
DOCKED: ATOM     23  O   UNL d   1      -0.490 -18.113  -7.170 -0.02 +0.00    -0.228 OA
DOCKED: BRANCH  22  24
DOCKED: ATOM     24  O   UNL d   1       1.634 -19.052  -6.007 -0.02 -0.00    -0.303 OA
DOCKED: ATOM     25  H   UNL d   1       2.431 -18.899  -6.576 +0.02 +0.01    +0.222 HD
DOCKED: ENDBRANCH  22  24
DOCKED: BRANCH  22  26
DOCKED: ATOM     26  O   UNL d   1       0.208 -17.483  -4.719 -0.02 +0.01    -0.303 OA
DOCKED: ATOM     27  H   UNL d   1       0.209 -16.511  -4.605 +0.06 -0.01    +0.222 HD
DOCKED: ENDBRANCH  22  26
DOCKED: ENDBRANCH  21  22
DOCKED: ENDBRANCH   6  21
DOCKED: BRANCH   3  28
DOCKED: ATOM     28  O   UNL d   1       0.421 -15.712 -11.864 -0.10 -0.13    -0.278 OA
DOCKED: BRANCH  28  29
DOCKED: ATOM     29  P   UNL d   1      -0.656 -16.138 -12.956 -0.04 +0.16    +0.473 P 
DOCKED: ATOM     30  O   UNL d   1      -0.363 -17.396 -13.690 -0.02 -0.05    -0.228 OA
DOCKED: BRANCH  29  31
DOCKED: ATOM     31  O   UNL d   1      -1.985 -16.110 -12.064 -0.07 -0.01    -0.303 OA
DOCKED: ATOM     32  H   UNL d   1      -1.760 -15.744 -11.178 +0.02 -0.01    +0.222 HD
DOCKED: ENDBRANCH  29  31
DOCKED: BRANCH  29  33
DOCKED: ATOM     33  O   UNL d   1      -0.791 -14.812 -13.827 -0.50 -0.27    -0.303 OA
DOCKED: ATOM     34  H   UNL d   1      -1.472 -14.956 -14.529 +0.05 +0.06    +0.222 HD
DOCKED: ENDBRANCH  29  33
DOCKED: ENDBRANCH  28  29
DOCKED: ENDBRANCH   3  28
DOCKED: BRANCH   5  35
DOCKED: ATOM     35  O   UNL d   1       0.278 -14.221  -7.478 -0.25 +0.02    -0.278 OA
DOCKED: BRANCH  35  36
DOCKED: ATOM     36  P   UNL d   1      -0.073 -14.142  -5.924 -0.18 -0.03    +0.473 P 
DOCKED: ATOM     37  O   UNL d   1      -0.589 -12.822  -5.446 -0.39 +0.04    -0.228 OA
DOCKED: BRANCH  36  38
DOCKED: ATOM     38  O   UNL d   1      -1.103 -15.345  -5.761 -0.10 +0.02    -0.303 OA
DOCKED: ATOM     39  H   UNL d   1      -0.763 -16.127  -6.246 +0.06 -0.01    +0.222 HD
DOCKED: ENDBRANCH  36  38
DOCKED: BRANCH  36  40
DOCKED: ATOM     40  O   UNL d   1       1.259 -14.684  -5.246 -0.14 +0.01    -0.303 OA
DOCKED: ATOM     41  H   UNL d   1       1.281 -15.666  -5.222 +0.08 -0.00    +0.222 HD
DOCKED: ENDBRANCH  36  40
DOCKED: ENDBRANCH  35  36
DOCKED: ENDBRANCH   5  35
DOCKED: BRANCH   4  42
DOCKED: ATOM     42  O   UNL d   1      -1.386 -14.968  -9.750 -0.11 +0.02    -0.278 OA
DOCKED: BRANCH  42  43
DOCKED: ATOM     43  P   UNL d   1      -2.382 -16.053  -9.138 -0.01 -0.03    +0.473 P 
DOCKED: ATOM     44  O   UNL d   1      -2.579 -16.049  -7.661 -0.08 +0.01    -0.228 OA
DOCKED: BRANCH  43  45
DOCKED: ATOM     45  O   UNL d   1      -3.716 -15.814  -9.973 -0.14 +0.06    -0.303 OA
DOCKED: ATOM     46  H   UNL d   1      -3.549 -15.261 -10.763 -0.51 -0.09    +0.222 HD
DOCKED: ENDBRANCH  43  45
DOCKED: BRANCH  43  47
DOCKED: ATOM     47  O   UNL d   1      -1.851 -17.431  -9.761 -0.03 +0.00    -0.303 OA
DOCKED: ATOM     48  H   UNL d   1      -1.656 -18.059  -9.035 +0.02 -0.00    +0.222 HD
DOCKED: ENDBRANCH  43  47
DOCKED: ENDBRANCH  42  43
DOCKED: ENDBRANCH   4  42
DOCKED: TORSDOF 24
DOCKED: TER
DOCKED: ENDMDL
________________________________________________________________________________


	BEGINNING GENETIC ALGORITHM DOCKING 69 of 100
Run: 69 Seed: 1159640934 1021056125 [ Run 69 of 100 GA/GALS ]
Beginning LAMARCKIAN GENETIC ALGORITHM (LGA), with a maximum of 25000000 energy evaluations.

Final-Value: -20.042


	FINAL GENETIC ALGORITHM DOCKED STATE
	_______________________________________________


Detailed state:  trans -8.833 13.475 -8.446 quatxyzw 0.282013 -0.692837 -0.627092 0.217257 center 0.035 0.082 -0.065 ntor 24 -95.7532 41.9644 59.7553 48.9019 27.8122 -152.3067 -130.2136 -78.0396 134.3432 62.5344 -150.7027 180.0000 -151.2293 159.4018 -53.7584 91.8433 73.7681 162.0942 35.2874 -17.1265 -180.0000 -20.8238 18.1727 -174.4628
State:	 -8.833  13.475  -8.446   0.289 -0.710 -0.642 154.904    -95.75   41.96   59.76   48.90   27.81 -152.31 -130.21  -78.04  134.34   62.53 -150.70  180.00 -151.23  159.40  -53.76   91.84   73.77  162.09   35.29  -17.13 -180.00  -20.82   18.17 -174.46

DOCKED: MODEL       69
DOCKED: USER    Run = 69
DOCKED: USER    DPF = D:/Protein_go_brrr/autodock/final/mut_D99N/IHP/dock.dpf
DOCKED: USER  
DOCKED: USER    Estimated Free Energy of Binding    =   +1.56 kcal/mol  [=(1)+(2)+(3)-(4)]
DOCKED: USER    
DOCKED: USER    (1) Final Intermolecular Energy     =   -5.59 kcal/mol
DOCKED: USER        vdW + Hbond + desolv Energy     =   -5.49 kcal/mol
DOCKED: USER        Electrostatic Energy            =   -0.10 kcal/mol
DOCKED: USER    (2) Final Total Internal Energy     =  -14.45 kcal/mol
DOCKED: USER    (3) Torsional Free Energy           =   +7.16 kcal/mol
DOCKED: USER    (4) Unbound System's Energy  [=(2)] =  -14.45 kcal/mol
DOCKED: USER    
DOCKED: USER    
DOCKED: USER    NEWDPF move IHP_ideal_opt.pdbqt
DOCKED: USER    NEWDPF about 0.035000 0.082000 -0.065000
DOCKED: USER    NEWDPF tran0 -8.832580 13.475308 -8.445946
DOCKED: USER    NEWDPF quaternion0 0.282013 -0.692837 -0.627092 0.217257
DOCKED: USER    NEWDPF axisangle0 0.288914 -0.709791 -0.642437 154.904024
DOCKED: USER    NEWDPF quat0 0.288914 -0.709791 -0.642437 154.904024
DOCKED: USER    NEWDPF dihe0 -95.75 41.96 59.76 48.90 27.81 -152.31 -130.21 -78.04 134.34 62.53 -150.70 180.00 -151.23 159.40 -53.76 91.84 73.77 162.09 35.29 -17.13 -180.00 -20.82 18.17 -174.46 
DOCKED: USER  keepresnum = 1 
DOCKED: USER  
DOCKED: REMARK  24 active torsions:
DOCKED: REMARK  status: ('A' for Active; 'I' for Inactive)
DOCKED: REMARK    1  A    between atoms: C_1  and  O_7 
DOCKED: REMARK    2  A    between atoms: C_2  and  O_12 
DOCKED: REMARK    3  A    between atoms: C_3  and  O_17 
DOCKED: REMARK    4  A    between atoms: C_4  and  O_22 
DOCKED: REMARK    5  A    between atoms: C_5  and  O_27 
DOCKED: REMARK    6  A    between atoms: C_6  and  O_32 
DOCKED: REMARK    7  A    between atoms: O_7  and  P_8 
DOCKED: REMARK    8  A    between atoms: P_8  and  O_10 
DOCKED: REMARK    9  A    between atoms: P_8  and  O_11 
DOCKED: REMARK   10  A    between atoms: O_12  and  P_13 
DOCKED: REMARK   11  A    between atoms: P_13  and  O_15 
DOCKED: REMARK   12  A    between atoms: P_13  and  O_16 
DOCKED: REMARK   13  A    between atoms: O_17  and  P_18 
DOCKED: REMARK   14  A    between atoms: P_18  and  O_20 
DOCKED: REMARK   15  A    between atoms: P_18  and  O_21 
DOCKED: REMARK   16  A    between atoms: O_22  and  P_23 
DOCKED: REMARK   17  A    between atoms: P_23  and  O_25 
DOCKED: REMARK   18  A    between atoms: P_23  and  O_26 
DOCKED: REMARK   19  A    between atoms: O_27  and  P_28 
DOCKED: REMARK   20  A    between atoms: P_28  and  O_30 
DOCKED: REMARK   21  A    between atoms: P_28  and  O_31 
DOCKED: REMARK   22  A    between atoms: O_32  and  P_33 
DOCKED: REMARK   23  A    between atoms: P_33  and  O_35 
DOCKED: REMARK   24  A    between atoms: P_33  and  O_36 
DOCKED: USER                              x       y       z     vdW  Elec       q    Type
DOCKED: USER                           _______ _______ _______ _____ _____    ______ ____
DOCKED: ROOT
DOCKED: ATOM      1  C   UNL d   1      -9.221  14.063 -10.023 -0.16 -0.02    +0.194 C 
DOCKED: ATOM      2  C   UNL d   1      -7.736  13.801  -9.762 -0.18 -0.01    +0.194 C 
DOCKED: ATOM      3  C   UNL d   1      -7.305  14.308  -8.385 -0.20 +0.01    +0.194 C 
DOCKED: ATOM      4  C   UNL d   1      -8.190  13.795  -7.251 -0.25 +0.01    +0.194 C 
DOCKED: ATOM      5  C   UNL d   1      -9.683  13.932  -7.519 -0.21 -0.00    +0.194 C 
DOCKED: ATOM      6  C   UNL d   1     -10.105  13.482  -8.919 -0.14 -0.01    +0.194 C 
DOCKED: ENDROOT
DOCKED: BRANCH   1   7
DOCKED: ATOM      7  O   UNL d   1      -9.581  13.412 -11.244 -0.19 +0.07    -0.278 OA
DOCKED: BRANCH   7   8
DOCKED: ATOM      8  P   UNL d   1      -9.378  14.205 -12.616 -0.09 -0.12    +0.473 P 
DOCKED: ATOM      9  O   UNL d   1     -10.608  14.833 -13.170 -0.07 +0.06    -0.228 OA
DOCKED: BRANCH   8  10
DOCKED: ATOM     10  O   UNL d   1      -8.228  15.262 -12.285 -0.03 +0.03    -0.303 OA
DOCKED: ATOM     11  H   UNL d   1      -7.396  14.982 -12.709 +0.04 -0.02    +0.222 HD
DOCKED: ENDBRANCH   8  10
DOCKED: BRANCH   8  12
DOCKED: ATOM     12  O   UNL d   1      -8.626  13.186 -13.575 -0.25 +0.10    -0.303 OA
DOCKED: ATOM     13  H   UNL d   1      -8.403  12.335 -13.135 -0.09 -0.10    +0.222 HD
DOCKED: ENDBRANCH   8  12
DOCKED: ENDBRANCH   7   8
DOCKED: ENDBRANCH   1   7
DOCKED: BRANCH   2  14
DOCKED: ATOM     14  O   UNL d   1      -7.493  12.390  -9.826 -0.20 -0.00    -0.278 OA
DOCKED: BRANCH  14  15
DOCKED: ATOM     15  P   UNL d   1      -6.555  11.879 -11.020 -0.08 -0.02    +0.473 P 
DOCKED: ATOM     16  O   UNL d   1      -6.889  10.546 -11.613 -0.41 +0.02    -0.228 OA
DOCKED: BRANCH  15  17
DOCKED: ATOM     17  O   UNL d   1      -6.607  13.061 -12.087 -0.13 +0.03    -0.303 OA
DOCKED: ATOM     18  H   UNL d   1      -7.493  13.471 -12.114 +0.07 -0.03    +0.222 HD
DOCKED: ENDBRANCH  15  17
DOCKED: BRANCH  15  19
DOCKED: ATOM     19  O   UNL d   1      -5.076  12.026 -10.452 -0.15 -0.00    -0.303 OA
DOCKED: ATOM     20  H   UNL d   1      -5.058  12.531  -9.619 +0.09 +0.00    +0.222 HD
DOCKED: ENDBRANCH  15  19
DOCKED: ENDBRANCH  14  15
DOCKED: ENDBRANCH   2  14
DOCKED: BRANCH   6  21
DOCKED: ATOM     21  O   UNL d   1     -11.423  13.981  -9.133 -0.10 +0.03    -0.278 OA
DOCKED: BRANCH  21  22
DOCKED: ATOM     22  P   UNL d   1     -11.637  15.519  -9.502 -0.01 -0.04    +0.473 P 
DOCKED: ATOM     23  O   UNL d   1     -10.580  16.493  -9.105 -0.01 +0.01    -0.228 OA
DOCKED: BRANCH  22  24
DOCKED: ATOM     24  O   UNL d   1     -11.920  15.441 -11.067 -0.02 +0.05    -0.303 OA
DOCKED: ATOM     25  H   UNL d   1     -11.330  14.745 -11.453 +0.04 -0.05    +0.222 HD
DOCKED: ENDBRANCH  22  24
DOCKED: BRANCH  22  26
DOCKED: ATOM     26  O   UNL d   1     -13.103  15.793  -8.914 -0.01 +0.03    -0.303 OA
DOCKED: ATOM     27  H   UNL d   1     -13.232  15.255  -8.107 +0.05 -0.02    +0.222 HD
DOCKED: ENDBRANCH  22  26
DOCKED: ENDBRANCH  21  22
DOCKED: ENDBRANCH   6  21
DOCKED: BRANCH   3  28
DOCKED: ATOM     28  O   UNL d   1      -6.011  13.782  -8.121 -0.20 -0.01    -0.278 OA
DOCKED: BRANCH  28  29
DOCKED: ATOM     29  P   UNL d   1      -4.710  14.589  -8.560 -0.14 -0.02    +0.473 P 
DOCKED: ATOM     30  O   UNL d   1      -4.491  15.881  -7.862 -0.19 -0.01    -0.228 OA
DOCKED: BRANCH  29  31
DOCKED: ATOM     31  O   UNL d   1      -3.597  13.456  -8.357 -0.28 +0.04    -0.303 OA
DOCKED: ATOM     32  H   UNL d   1      -3.388  13.390  -7.397 -0.49 -0.09    +0.222 HD
DOCKED: ENDBRANCH  29  31
DOCKED: BRANCH  29  33
DOCKED: ATOM     33  O   UNL d   1      -4.870  14.644 -10.143 -0.04 +0.01    -0.303 OA
DOCKED: ATOM     34  H   UNL d   1      -5.507  13.943 -10.426 +0.07 -0.01    +0.222 HD
DOCKED: ENDBRANCH  29  33
DOCKED: ENDBRANCH  28  29
DOCKED: ENDBRANCH   3  28
DOCKED: BRANCH   5  35
DOCKED: ATOM     35  O   UNL d   1     -10.325  13.063  -6.588 -0.27 +0.01    -0.278 OA
DOCKED: BRANCH  35  36
DOCKED: ATOM     36  P   UNL d   1     -11.773  13.418  -6.021 -0.23 -0.02    +0.473 P 
DOCKED: ATOM     37  O   UNL d   1     -12.851  12.433  -6.343 -0.72 +0.02    -0.228 OA
DOCKED: BRANCH  36  38
DOCKED: ATOM     38  O   UNL d   1     -11.482  13.584  -4.464 -0.05 +0.01    -0.303 OA
DOCKED: ATOM     39  H   UNL d   1     -10.880  14.347  -4.329 +0.02 -0.01    +0.222 HD
DOCKED: ENDBRANCH  36  38
DOCKED: BRANCH  36  40
DOCKED: ATOM     40  O   UNL d   1     -11.981  14.910  -6.532 -0.06 +0.01    -0.303 OA
DOCKED: ATOM     41  H   UNL d   1     -11.395  15.119  -7.294 +0.07 -0.01    +0.222 HD
DOCKED: ENDBRANCH  36  40
DOCKED: ENDBRANCH  35  36
DOCKED: ENDBRANCH   5  35
DOCKED: BRANCH   4  42
DOCKED: ATOM     42  O   UNL d   1      -7.894  14.594  -6.100 -0.24 -0.04    -0.278 OA
DOCKED: BRANCH  42  43
DOCKED: ATOM     43  P   UNL d   1      -8.445  16.089  -6.036 -0.06 +0.05    +0.473 P 
DOCKED: ATOM     44  O   UNL d   1      -7.668  17.074  -5.234 -0.07 -0.04    -0.228 OA
DOCKED: BRANCH  43  45
DOCKED: ATOM     45  O   UNL d   1      -8.592  16.473  -7.574 -0.02 -0.01    -0.303 OA
DOCKED: ATOM     46  H   UNL d   1      -9.435  16.937  -7.748 +0.03 +0.00    +0.222 HD
DOCKED: ENDBRANCH  43  45
DOCKED: BRANCH  43  47
DOCKED: ATOM     47  O   UNL d   1      -9.976  15.897  -5.601 -0.04 -0.02    -0.303 OA
DOCKED: ATOM     48  H   UNL d   1     -10.167  14.940  -5.509 +0.10 +0.01    +0.222 HD
DOCKED: ENDBRANCH  43  47
DOCKED: ENDBRANCH  42  43
DOCKED: ENDBRANCH   4  42
DOCKED: TORSDOF 24
DOCKED: TER
DOCKED: ENDMDL
________________________________________________________________________________


	BEGINNING GENETIC ALGORITHM DOCKING 70 of 100
Run: 70 Seed: 2112306175 2064215020 [ Run 70 of 100 GA/GALS ]
Beginning LAMARCKIAN GENETIC ALGORITHM (LGA), with a maximum of 25000000 energy evaluations.

Final-Value: -19.858


	FINAL GENETIC ALGORITHM DOCKED STATE
	_______________________________________________


Detailed state:  trans 1.889 -16.511 3.809 quatxyzw 0.059538 -0.577766 0.432996 -0.689316 center 0.035 0.082 -0.065 ntor 24 -178.8264 114.1047 83.5169 114.7150 33.1082 133.5157 34.9949 -141.1988 7.1349 146.8781 85.2259 -146.7084 -40.7442 -1.1095 168.1678 -78.7626 -62.4751 106.3977 -6.9668 -28.1235 -22.5816 25.7847 166.5492 -6.4901
State:	  1.889 -16.511   3.809   0.082 -0.798  0.598 -92.848   -178.83  114.10   83.52  114.71   33.11  133.52   34.99 -141.20    7.13  146.88   85.23 -146.71  -40.74   -1.11  168.17  -78.76  -62.48  106.40   -6.97  -28.12  -22.58   25.78  166.55   -6.49

DOCKED: MODEL       70
DOCKED: USER    Run = 70
DOCKED: USER    DPF = D:/Protein_go_brrr/autodock/final/mut_D99N/IHP/dock.dpf
DOCKED: USER  
DOCKED: USER    Estimated Free Energy of Binding    =   +1.95 kcal/mol  [=(1)+(2)+(3)-(4)]
DOCKED: USER    
DOCKED: USER    (1) Final Intermolecular Energy     =   -5.21 kcal/mol
DOCKED: USER        vdW + Hbond + desolv Energy     =   -5.07 kcal/mol
DOCKED: USER        Electrostatic Energy            =   -0.14 kcal/mol
DOCKED: USER    (2) Final Total Internal Energy     =  -14.65 kcal/mol
DOCKED: USER    (3) Torsional Free Energy           =   +7.16 kcal/mol
DOCKED: USER    (4) Unbound System's Energy  [=(2)] =  -14.65 kcal/mol
DOCKED: USER    
DOCKED: USER    
DOCKED: USER    NEWDPF move IHP_ideal_opt.pdbqt
DOCKED: USER    NEWDPF about 0.035000 0.082000 -0.065000
DOCKED: USER    NEWDPF tran0 1.889379 -16.511160 3.808974
DOCKED: USER    NEWDPF quaternion0 0.059538 -0.577766 0.432996 -0.689316
DOCKED: USER    NEWDPF axisangle0 0.082182 -0.797511 0.597680 -92.848100
DOCKED: USER    NEWDPF quat0 0.082182 -0.797511 0.597680 -92.848100
DOCKED: USER    NEWDPF dihe0 -178.83 114.10 83.52 114.71 33.11 133.52 34.99 -141.20 7.13 146.88 85.23 -146.71 -40.74 -1.11 168.17 -78.76 -62.48 106.40 -6.97 -28.12 -22.58 25.78 166.55 -6.49 
DOCKED: USER  keepresnum = 1 
DOCKED: USER  
DOCKED: REMARK  24 active torsions:
DOCKED: REMARK  status: ('A' for Active; 'I' for Inactive)
DOCKED: REMARK    1  A    between atoms: C_1  and  O_7 
DOCKED: REMARK    2  A    between atoms: C_2  and  O_12 
DOCKED: REMARK    3  A    between atoms: C_3  and  O_17 
DOCKED: REMARK    4  A    between atoms: C_4  and  O_22 
DOCKED: REMARK    5  A    between atoms: C_5  and  O_27 
DOCKED: REMARK    6  A    between atoms: C_6  and  O_32 
DOCKED: REMARK    7  A    between atoms: O_7  and  P_8 
DOCKED: REMARK    8  A    between atoms: P_8  and  O_10 
DOCKED: REMARK    9  A    between atoms: P_8  and  O_11 
DOCKED: REMARK   10  A    between atoms: O_12  and  P_13 
DOCKED: REMARK   11  A    between atoms: P_13  and  O_15 
DOCKED: REMARK   12  A    between atoms: P_13  and  O_16 
DOCKED: REMARK   13  A    between atoms: O_17  and  P_18 
DOCKED: REMARK   14  A    between atoms: P_18  and  O_20 
DOCKED: REMARK   15  A    between atoms: P_18  and  O_21 
DOCKED: REMARK   16  A    between atoms: O_22  and  P_23 
DOCKED: REMARK   17  A    between atoms: P_23  and  O_25 
DOCKED: REMARK   18  A    between atoms: P_23  and  O_26 
DOCKED: REMARK   19  A    between atoms: O_27  and  P_28 
DOCKED: REMARK   20  A    between atoms: P_28  and  O_30 
DOCKED: REMARK   21  A    between atoms: P_28  and  O_31 
DOCKED: REMARK   22  A    between atoms: O_32  and  P_33 
DOCKED: REMARK   23  A    between atoms: P_33  and  O_35 
DOCKED: REMARK   24  A    between atoms: P_33  and  O_36 
DOCKED: USER                              x       y       z     vdW  Elec       q    Type
DOCKED: USER                           _______ _______ _______ _____ _____    ______ ____
DOCKED: ROOT
DOCKED: ATOM      1  C   UNL d   1       1.838 -16.859   5.500 -0.04 -0.03    +0.194 C 
DOCKED: ATOM      2  C   UNL d   1       2.701 -17.800   4.658 -0.06 -0.03    +0.194 C 
DOCKED: ATOM      3  C   UNL d   1       2.008 -18.186   3.350 -0.05 -0.03    +0.194 C 
DOCKED: ATOM      4  C   UNL d   1       1.518 -16.981   2.550 -0.08 -0.03    +0.194 C 
DOCKED: ATOM      5  C   UNL d   1       0.749 -15.959   3.377 -0.07 -0.03    +0.194 C 
DOCKED: ATOM      6  C   UNL d   1       1.412 -15.619   4.714 -0.11 -0.04    +0.194 C 
DOCKED: ENDROOT
DOCKED: BRANCH   1   7
DOCKED: ATOM      7  O   UNL d   1       2.619 -16.411   6.611 -0.04 +0.04    -0.278 OA
DOCKED: BRANCH   7   8
DOCKED: ATOM      8  P   UNL d   1       1.993 -16.530   8.076 +0.01 -0.05    +0.473 P 
DOCKED: ATOM      9  O   UNL d   1       0.744 -17.335   8.165 -0.00 +0.02    -0.228 OA
DOCKED: BRANCH   8  10
DOCKED: ATOM     10  O   UNL d   1       3.184 -17.120   8.959 -0.00 +0.03    -0.303 OA
DOCKED: ATOM     11  H   UNL d   1       4.038 -16.916   8.534 +0.03 -0.02    +0.222 HD
DOCKED: ENDBRANCH   8  10
DOCKED: BRANCH   8  12
DOCKED: ATOM     12  O   UNL d   1       1.895 -15.036   8.606 -0.08 +0.04    -0.303 OA
DOCKED: ATOM     13  H   UNL d   1       1.222 -14.501   8.128 +0.07 -0.03    +0.222 HD
DOCKED: ENDBRANCH   8  12
DOCKED: ENDBRANCH   7   8
DOCKED: ENDBRANCH   1   7
DOCKED: BRANCH   2  14
DOCKED: ATOM     14  O   UNL d   1       3.936 -17.145   4.344 -0.11 +0.09    -0.278 OA
DOCKED: BRANCH  14  15
DOCKED: ATOM     15  P   UNL d   1       5.223 -17.604   5.180 -0.09 -0.09    +0.473 P 
DOCKED: ATOM     16  O   UNL d   1       5.539 -19.067   5.178 -0.04 +0.02    -0.228 OA
DOCKED: BRANCH  15  17
DOCKED: ATOM     17  O   UNL d   1       6.406 -16.716   4.588 -0.20 +0.06    -0.303 OA
DOCKED: ATOM     18  H   UNL d   1       6.133 -16.269   3.764 -0.48 -0.10    +0.222 HD
DOCKED: ENDBRANCH  15  17
DOCKED: BRANCH  15  19
DOCKED: ATOM     19  O   UNL d   1       5.018 -16.948   6.615 -0.04 +0.04    -0.303 OA
DOCKED: ATOM     20  H   UNL d   1       4.161 -17.198   7.006 +0.04 -0.03    +0.222 HD
DOCKED: ENDBRANCH  15  19
DOCKED: ENDBRANCH  14  15
DOCKED: ENDBRANCH   2  14
DOCKED: BRANCH   6  21
DOCKED: ATOM     21  O   UNL d   1       0.433 -14.941   5.498 -0.07 +0.04    -0.278 OA
DOCKED: BRANCH  21  22
DOCKED: ATOM     22  P   UNL d   1       0.760 -13.501   6.101 -0.20 -0.06    +0.473 P 
DOCKED: ATOM     23  O   UNL d   1      -0.078 -13.003   7.231 -0.39 +0.05    -0.228 OA
DOCKED: BRANCH  22  24
DOCKED: ATOM     24  O   UNL d   1       2.312 -13.629   6.427 -0.19 +0.06    -0.303 OA
DOCKED: ATOM     25  H   UNL d   1       2.496 -14.567   6.690 +0.07 -0.04    +0.222 HD
DOCKED: ENDBRANCH  22  24
DOCKED: BRANCH  22  26
DOCKED: ATOM     26  O   UNL d   1       0.773 -12.591   4.781 -0.65 +0.03    -0.303 OA
DOCKED: ATOM     27  H   UNL d   1       1.218 -13.079   4.059 -0.37 -0.09    +0.222 HD
DOCKED: ENDBRANCH  22  26
DOCKED: ENDBRANCH  21  22
DOCKED: ENDBRANCH   6  21
DOCKED: BRANCH   3  28
DOCKED: ATOM     28  O   UNL d   1       2.976 -18.820   2.523 -0.06 +0.04    -0.278 OA
DOCKED: BRANCH  28  29
DOCKED: ATOM     29  P   UNL d   1       2.603 -20.142   1.717 -0.01 -0.03    +0.473 P 
DOCKED: ATOM     30  O   UNL d   1       3.155 -21.406   2.269 -0.01 +0.01    -0.228 OA
DOCKED: BRANCH  29  31
DOCKED: ATOM     31  O   UNL d   1       1.010 -20.003   1.674 -0.00 +0.02    -0.303 OA
DOCKED: ATOM     32  H   UNL d   1       0.763 -19.457   0.891 +0.01 -0.01    +0.222 HD
DOCKED: ENDBRANCH  29  31
DOCKED: BRANCH  29  33
DOCKED: ATOM     33  O   UNL d   1       3.030 -19.759   0.232 -0.02 +0.02    -0.303 OA
DOCKED: ATOM     34  H   UNL d   1       2.306 -19.231  -0.185 +0.02 -0.01    +0.222 HD
DOCKED: ENDBRANCH  29  33
DOCKED: ENDBRANCH  28  29
DOCKED: ENDBRANCH   3  28
DOCKED: BRANCH   5  35
DOCKED: ATOM     35  O   UNL d   1       0.736 -14.764   2.599 -0.11 +0.05    -0.278 OA
DOCKED: BRANCH  35  36
DOCKED: ATOM     36  P   UNL d   1       2.101 -14.022   2.240 -0.27 -0.18    +0.473 P 
DOCKED: ATOM     37  O   UNL d   1       3.278 -14.391   3.087 -0.39 +0.12    -0.228 OA
DOCKED: BRANCH  36  38
DOCKED: ATOM     38  O   UNL d   1       2.269 -14.377   0.696 -0.26 +0.08    -0.303 OA
DOCKED: ATOM     39  H   UNL d   1       2.366 -15.349   0.599 +0.08 -0.03    +0.222 HD
DOCKED: ENDBRANCH  36  38
DOCKED: BRANCH  36  40
DOCKED: ATOM     40  O   UNL d   1       1.666 -12.492   2.235 -0.39 +0.13    -0.303 OA
DOCKED: ATOM     41  H   UNL d   1       1.986 -12.020   3.037 -0.35 -0.16    +0.222 HD
DOCKED: ENDBRANCH  36  40
DOCKED: ENDBRANCH  35  36
DOCKED: ENDBRANCH   5  35
DOCKED: BRANCH   4  42
DOCKED: ATOM     42  O   UNL d   1       0.618 -17.482   1.556 -0.02 +0.03    -0.278 OA
DOCKED: BRANCH  42  43
DOCKED: ATOM     43  P   UNL d   1       0.984 -17.288   0.016 -0.03 -0.04    +0.473 P 
DOCKED: ATOM     44  O   UNL d   1       0.452 -18.291  -0.948 -0.01 +0.01    -0.228 OA
DOCKED: BRANCH  43  45
DOCKED: ATOM     45  O   UNL d   1       0.511 -15.795  -0.270 -0.06 +0.03    -0.303 OA
DOCKED: ATOM     46  H   UNL d   1       0.310 -15.319   0.560 +0.07 -0.03    +0.222 HD
DOCKED: ENDBRANCH  43  45
DOCKED: BRANCH  43  47
DOCKED: ATOM     47  O   UNL d   1       2.579 -17.126   0.036 -0.11 +0.02    -0.303 OA
DOCKED: ATOM     48  H   UNL d   1       2.948 -17.662   0.769 -0.01 -0.03    +0.222 HD
DOCKED: ENDBRANCH  43  47
DOCKED: ENDBRANCH  42  43
DOCKED: ENDBRANCH   4  42
DOCKED: TORSDOF 24
DOCKED: TER
DOCKED: ENDMDL
________________________________________________________________________________


	BEGINNING GENETIC ALGORITHM DOCKING 71 of 100
Run: 71 Seed: 1417565298 338274356 [ Run 71 of 100 GA/GALS ]
Beginning LAMARCKIAN GENETIC ALGORITHM (LGA), with a maximum of 25000000 energy evaluations.

Final-Value: -20.564


	FINAL GENETIC ALGORITHM DOCKED STATE
	_______________________________________________


Detailed state:  trans 11.432 -13.394 6.418 quatxyzw 0.563887 0.774788 0.214046 0.189523 center 0.035 0.082 -0.065 ntor 24 162.6944 101.2914 93.7198 26.8268 93.4464 120.4374 -156.5615 25.2490 152.3417 -14.7276 12.1638 -154.4991 -62.4920 -116.5293 75.2523 12.6953 -153.5387 -89.7100 -8.9022 -38.7929 -26.8827 -179.9219 12.3250 17.0851
State:	 11.432 -13.394   6.418   0.574  0.789  0.218 158.150    162.69  101.29   93.72   26.83   93.45  120.44 -156.56   25.25  152.34  -14.73   12.16 -154.50  -62.49 -116.53   75.25   12.70 -153.54  -89.71   -8.90  -38.79  -26.88 -179.92   12.33   17.09

DOCKED: MODEL       71
DOCKED: USER    Run = 71
DOCKED: USER    DPF = D:/Protein_go_brrr/autodock/final/mut_D99N/IHP/dock.dpf
DOCKED: USER  
DOCKED: USER    Estimated Free Energy of Binding    =   -0.44 kcal/mol  [=(1)+(2)+(3)-(4)]
DOCKED: USER    Estimated Inhibition Constant, Ki   =  474.31 mM (millimolar)  [Temperature = 298.15 K]
DOCKED: USER    
DOCKED: USER    (1) Final Intermolecular Energy     =   -7.60 kcal/mol
DOCKED: USER        vdW + Hbond + desolv Energy     =   -7.17 kcal/mol
DOCKED: USER        Electrostatic Energy            =   -0.43 kcal/mol
DOCKED: USER    (2) Final Total Internal Energy     =  -12.96 kcal/mol
DOCKED: USER    (3) Torsional Free Energy           =   +7.16 kcal/mol
DOCKED: USER    (4) Unbound System's Energy  [=(2)] =  -12.96 kcal/mol
DOCKED: USER    
DOCKED: USER    
DOCKED: USER    NEWDPF move IHP_ideal_opt.pdbqt
DOCKED: USER    NEWDPF about 0.035000 0.082000 -0.065000
DOCKED: USER    NEWDPF tran0 11.432482 -13.394368 6.418098
DOCKED: USER    NEWDPF quaternion0 0.563887 0.774788 0.214046 0.189523
DOCKED: USER    NEWDPF axisangle0 0.574295 0.789090 0.217997 158.150109
DOCKED: USER    NEWDPF quat0 0.574295 0.789090 0.217997 158.150109
DOCKED: USER    NEWDPF dihe0 162.69 101.29 93.72 26.83 93.45 120.44 -156.56 25.25 152.34 -14.73 12.16 -154.50 -62.49 -116.53 75.25 12.70 -153.54 -89.71 -8.90 -38.79 -26.88 -179.92 12.33 17.09 
DOCKED: USER  keepresnum = 1 
DOCKED: USER  
DOCKED: REMARK  24 active torsions:
DOCKED: REMARK  status: ('A' for Active; 'I' for Inactive)
DOCKED: REMARK    1  A    between atoms: C_1  and  O_7 
DOCKED: REMARK    2  A    between atoms: C_2  and  O_12 
DOCKED: REMARK    3  A    between atoms: C_3  and  O_17 
DOCKED: REMARK    4  A    between atoms: C_4  and  O_22 
DOCKED: REMARK    5  A    between atoms: C_5  and  O_27 
DOCKED: REMARK    6  A    between atoms: C_6  and  O_32 
DOCKED: REMARK    7  A    between atoms: O_7  and  P_8 
DOCKED: REMARK    8  A    between atoms: P_8  and  O_10 
DOCKED: REMARK    9  A    between atoms: P_8  and  O_11 
DOCKED: REMARK   10  A    between atoms: O_12  and  P_13 
DOCKED: REMARK   11  A    between atoms: P_13  and  O_15 
DOCKED: REMARK   12  A    between atoms: P_13  and  O_16 
DOCKED: REMARK   13  A    between atoms: O_17  and  P_18 
DOCKED: REMARK   14  A    between atoms: P_18  and  O_20 
DOCKED: REMARK   15  A    between atoms: P_18  and  O_21 
DOCKED: REMARK   16  A    between atoms: O_22  and  P_23 
DOCKED: REMARK   17  A    between atoms: P_23  and  O_25 
DOCKED: REMARK   18  A    between atoms: P_23  and  O_26 
DOCKED: REMARK   19  A    between atoms: O_27  and  P_28 
DOCKED: REMARK   20  A    between atoms: P_28  and  O_30 
DOCKED: REMARK   21  A    between atoms: P_28  and  O_31 
DOCKED: REMARK   22  A    between atoms: O_32  and  P_33 
DOCKED: REMARK   23  A    between atoms: P_33  and  O_35 
DOCKED: REMARK   24  A    between atoms: P_33  and  O_36 
DOCKED: USER                              x       y       z     vdW  Elec       q    Type
DOCKED: USER                           _______ _______ _______ _____ _____    ______ ____
DOCKED: ROOT
DOCKED: ATOM      1  C   UNL d   1      10.177 -12.212   6.322 -0.19 -0.05    +0.194 C 
DOCKED: ATOM      2  C   UNL d   1       9.793 -13.621   5.868 -0.22 -0.05    +0.194 C 
DOCKED: ATOM      3  C   UNL d   1      10.887 -14.257   5.008 -0.15 -0.02    +0.194 C 
DOCKED: ATOM      4  C   UNL d   1      12.266 -14.216   5.662 -0.19 -0.05    +0.194 C 
DOCKED: ATOM      5  C   UNL d   1      12.643 -12.855   6.232 -0.18 -0.08    +0.194 C 
DOCKED: ATOM      6  C   UNL d   1      11.527 -12.192   7.041 -0.17 -0.06    +0.194 C 
DOCKED: ENDROOT
DOCKED: BRANCH   1   7
DOCKED: ATOM      7  O   UNL d   1       9.191 -11.759   7.254 -0.19 +0.08    -0.278 OA
DOCKED: BRANCH   7   8
DOCKED: ATOM      8  P   UNL d   1       8.563 -10.305   7.047 -0.32 -0.13    +0.473 P 
DOCKED: ATOM      9  O   UNL d   1       9.253  -9.457   6.038 -0.35 +0.05    -0.228 OA
DOCKED: BRANCH   8  10
DOCKED: ATOM     10  O   UNL d   1       7.035 -10.592   6.687 -0.93 +0.00    -0.303 OA
DOCKED: ATOM     11  H   UNL d   1       6.856 -11.548   6.759 -0.17 -0.03    +0.222 HD
DOCKED: ENDBRANCH   8  10
DOCKED: BRANCH   8  12
DOCKED: ATOM     12  O   UNL d   1       8.451  -9.693   8.509 -0.71 +0.13    -0.303 OA
DOCKED: ATOM     13  H   UNL d   1       9.310  -9.679   8.988 +0.10 -0.08    +0.222 HD
DOCKED: ENDBRANCH   8  12
DOCKED: ENDBRANCH   7   8
DOCKED: ENDBRANCH   1   7
DOCKED: BRANCH   2  14
DOCKED: ATOM     14  O   UNL d   1       9.586 -14.443   7.023 -0.11 +0.05    -0.278 OA
DOCKED: BRANCH  14  15
DOCKED: ATOM     15  P   UNL d   1       8.085 -14.537   7.575 -0.08 -0.11    +0.473 P 
DOCKED: ATOM     16  O   UNL d   1       7.454 -13.257   8.027 -0.17 +0.06    -0.228 OA
DOCKED: BRANCH  15  17
DOCKED: ATOM     17  O   UNL d   1       7.281 -15.239   6.392 -0.15 +0.08    -0.303 OA
DOCKED: ATOM     18  H   UNL d   1       7.861 -15.410   5.626 -0.11 -0.04    +0.222 HD
DOCKED: ENDBRANCH  15  17
DOCKED: BRANCH  15  19
DOCKED: ATOM     19  O   UNL d   1       8.134 -15.698   8.661 -0.02 +0.04    -0.303 OA
DOCKED: ATOM     20  H   UNL d   1       8.779 -16.389   8.422 +0.03 -0.02    +0.222 HD
DOCKED: ENDBRANCH  15  19
DOCKED: ENDBRANCH  14  15
DOCKED: ENDBRANCH   2  14
DOCKED: BRANCH   6  21
DOCKED: ATOM     21  O   UNL d   1      11.893 -10.824   7.205 -0.22 +0.12    -0.278 OA
DOCKED: BRANCH  21  22
DOCKED: ATOM     22  P   UNL d   1      11.874 -10.167   8.659 -0.06 -0.18    +0.473 P 
DOCKED: ATOM     23  O   UNL d   1      13.179  -9.917   9.337 -0.10 +0.08    -0.228 OA
DOCKED: BRANCH  22  24
DOCKED: ATOM     24  O   UNL d   1      10.987  -8.868   8.417 -0.33 +0.11    -0.303 OA
DOCKED: ATOM     25  H   UNL d   1      10.372  -9.050   7.662 +0.07 -0.05    +0.222 HD
DOCKED: ENDBRANCH  22  24
DOCKED: BRANCH  22  26
DOCKED: ATOM     26  O   UNL d   1      10.851 -11.127   9.435 -0.04 +0.10    -0.303 OA
DOCKED: ATOM     27  H   UNL d   1      10.013 -11.180   8.931 +0.08 -0.08    +0.222 HD
DOCKED: ENDBRANCH  22  26
DOCKED: ENDBRANCH  21  22
DOCKED: ENDBRANCH   6  21
DOCKED: BRANCH   3  28
DOCKED: ATOM     28  O   UNL d   1      10.576 -15.637   4.869 -0.16 -0.02    -0.278 OA
DOCKED: BRANCH  28  29
DOCKED: ATOM     29  P   UNL d   1      10.683 -16.615   6.122 -0.06 -0.01    +0.473 P 
DOCKED: ATOM     30  O   UNL d   1      11.402 -16.069   7.301 -0.03 +0.02    -0.228 OA
DOCKED: BRANCH  29  31
DOCKED: ATOM     31  O   UNL d   1       9.138 -16.986   6.320 -0.06 +0.02    -0.303 OA
DOCKED: ATOM     32  H   UNL d   1       8.796 -16.495   7.103 +0.04 -0.02    +0.222 HD
DOCKED: ENDBRANCH  29  31
DOCKED: BRANCH  29  33
DOCKED: ATOM     33  O   UNL d   1      11.279 -17.937   5.463 -0.04 -0.02    -0.303 OA
DOCKED: ATOM     34  H   UNL d   1      12.263 -17.855   5.414 +0.03 +0.01    +0.222 HD
DOCKED: ENDBRANCH  29  33
DOCKED: ENDBRANCH  28  29
DOCKED: ENDBRANCH   3  28
DOCKED: BRANCH   5  35
DOCKED: ATOM     35  O   UNL d   1      13.725 -13.097   7.129 -0.05 +0.10    -0.278 OA
DOCKED: BRANCH  35  36
DOCKED: ATOM     36  P   UNL d   1      14.923 -12.050   7.246 -0.06 -0.17    +0.473 P 
DOCKED: ATOM     37  O   UNL d   1      16.230 -12.499   6.674 -0.08 +0.09    -0.228 OA
DOCKED: BRANCH  36  38
DOCKED: ATOM     38  O   UNL d   1      14.304 -10.766   6.536 -0.20 +0.16    -0.303 OA
DOCKED: ATOM     39  H   UNL d   1      13.743 -10.282   7.180 -0.41 -0.14    +0.222 HD
DOCKED: ENDBRANCH  36  38
DOCKED: BRANCH  36  40
DOCKED: ATOM     40  O   UNL d   1      14.901 -11.680   8.792 -0.02 +0.07    -0.303 OA
DOCKED: ATOM     41  H   UNL d   1      14.022 -11.340   9.073 +0.04 -0.05    +0.222 HD
DOCKED: ENDBRANCH  36  40
DOCKED: ENDBRANCH  35  36
DOCKED: ENDBRANCH   5  35
DOCKED: BRANCH   4  42
DOCKED: ATOM     42  O   UNL d   1      13.219 -14.523   4.638 -0.21 +0.17    -0.278 OA
DOCKED: BRANCH  42  43
DOCKED: ATOM     43  P   UNL d   1      13.700 -16.033   4.459 -0.12 -0.05    +0.473 P 
DOCKED: ATOM     44  O   UNL d   1      14.026 -16.801   5.693 -0.04 +0.02    -0.228 OA
DOCKED: BRANCH  43  45
DOCKED: ATOM     45  O   UNL d   1      12.531 -16.670   3.586 -0.14 -0.18    -0.303 OA
DOCKED: ATOM     46  H   UNL d   1      11.672 -16.625   4.051 +0.04 +0.07    +0.222 HD
DOCKED: ENDBRANCH  43  45
DOCKED: BRANCH  43  47
DOCKED: ATOM     47  O   UNL d   1      14.883 -15.916   3.384 -0.52 +0.09    -0.303 OA
DOCKED: ATOM     48  H   UNL d   1      15.260 -15.013   3.416 -0.27 -0.45    +0.222 HD
DOCKED: ENDBRANCH  43  47
DOCKED: ENDBRANCH  42  43
DOCKED: ENDBRANCH   4  42
DOCKED: TORSDOF 24
DOCKED: TER
DOCKED: ENDMDL
________________________________________________________________________________


	BEGINNING GENETIC ALGORITHM DOCKING 72 of 100
Run: 72 Seed: 1296561373 282547582 [ Run 72 of 100 GA/GALS ]
Beginning LAMARCKIAN GENETIC ALGORITHM (LGA), with a maximum of 25000000 energy evaluations.

Final-Value: -19.550


	FINAL GENETIC ALGORITHM DOCKED STATE
	_______________________________________________


Detailed state:  trans -15.794 12.232 6.133 quatxyzw 0.463600 0.473287 -0.748976 0.010451 center 0.035 0.082 -0.065 ntor 24 -112.1627 14.4651 70.8043 88.5411 -23.7854 -160.9246 -70.0675 -52.1554 -179.9111 9.0516 90.5027 -117.6630 -137.5454 139.1100 -6.5793 -3.8842 44.8650 107.5897 28.2476 -9.5323 -0.5223 5.1638 -18.5525 -2.4083
State:	-15.794  12.232   6.133   0.464  0.473 -0.749 178.802   -112.16   14.47   70.80   88.54  -23.79 -160.92  -70.07  -52.16 -179.91    9.05   90.50 -117.66 -137.55  139.11   -6.58   -3.88   44.87  107.59   28.25   -9.53   -0.52    5.16  -18.55   -2.41

DOCKED: MODEL       72
DOCKED: USER    Run = 72
DOCKED: USER    DPF = D:/Protein_go_brrr/autodock/final/mut_D99N/IHP/dock.dpf
DOCKED: USER  
DOCKED: USER    Estimated Free Energy of Binding    =   +1.47 kcal/mol  [=(1)+(2)+(3)-(4)]
DOCKED: USER    
DOCKED: USER    (1) Final Intermolecular Energy     =   -5.69 kcal/mol
DOCKED: USER        vdW + Hbond + desolv Energy     =   -5.17 kcal/mol
DOCKED: USER        Electrostatic Energy            =   -0.53 kcal/mol
DOCKED: USER    (2) Final Total Internal Energy     =  -13.86 kcal/mol
DOCKED: USER    (3) Torsional Free Energy           =   +7.16 kcal/mol
DOCKED: USER    (4) Unbound System's Energy  [=(2)] =  -13.86 kcal/mol
DOCKED: USER    
DOCKED: USER    
DOCKED: USER    NEWDPF move IHP_ideal_opt.pdbqt
DOCKED: USER    NEWDPF about 0.035000 0.082000 -0.065000
DOCKED: USER    NEWDPF tran0 -15.794187 12.232349 6.132758
DOCKED: USER    NEWDPF quaternion0 0.463600 0.473287 -0.748976 0.010451
DOCKED: USER    NEWDPF axisangle0 0.463625 0.473313 -0.749017 178.802425
DOCKED: USER    NEWDPF quat0 0.463625 0.473313 -0.749017 178.802425
DOCKED: USER    NEWDPF dihe0 -112.16 14.47 70.80 88.54 -23.79 -160.92 -70.07 -52.16 -179.91 9.05 90.50 -117.66 -137.55 139.11 -6.58 -3.88 44.87 107.59 28.25 -9.53 -0.52 5.16 -18.55 -2.41 
DOCKED: USER  keepresnum = 1 
DOCKED: USER  
DOCKED: REMARK  24 active torsions:
DOCKED: REMARK  status: ('A' for Active; 'I' for Inactive)
DOCKED: REMARK    1  A    between atoms: C_1  and  O_7 
DOCKED: REMARK    2  A    between atoms: C_2  and  O_12 
DOCKED: REMARK    3  A    between atoms: C_3  and  O_17 
DOCKED: REMARK    4  A    between atoms: C_4  and  O_22 
DOCKED: REMARK    5  A    between atoms: C_5  and  O_27 
DOCKED: REMARK    6  A    between atoms: C_6  and  O_32 
DOCKED: REMARK    7  A    between atoms: O_7  and  P_8 
DOCKED: REMARK    8  A    between atoms: P_8  and  O_10 
DOCKED: REMARK    9  A    between atoms: P_8  and  O_11 
DOCKED: REMARK   10  A    between atoms: O_12  and  P_13 
DOCKED: REMARK   11  A    between atoms: P_13  and  O_15 
DOCKED: REMARK   12  A    between atoms: P_13  and  O_16 
DOCKED: REMARK   13  A    between atoms: O_17  and  P_18 
DOCKED: REMARK   14  A    between atoms: P_18  and  O_20 
DOCKED: REMARK   15  A    between atoms: P_18  and  O_21 
DOCKED: REMARK   16  A    between atoms: O_22  and  P_23 
DOCKED: REMARK   17  A    between atoms: P_23  and  O_25 
DOCKED: REMARK   18  A    between atoms: P_23  and  O_26 
DOCKED: REMARK   19  A    between atoms: O_27  and  P_28 
DOCKED: REMARK   20  A    between atoms: P_28  and  O_30 
DOCKED: REMARK   21  A    between atoms: P_28  and  O_31 
DOCKED: REMARK   22  A    between atoms: O_32  and  P_33 
DOCKED: REMARK   23  A    between atoms: P_33  and  O_35 
DOCKED: REMARK   24  A    between atoms: P_33  and  O_36 
DOCKED: USER                              x       y       z     vdW  Elec       q    Type
DOCKED: USER                           _______ _______ _______ _____ _____    ______ ____
DOCKED: ROOT
DOCKED: ATOM      1  C   UNL d   1     -17.441  12.739   6.010 -0.00 -0.04    +0.194 C 
DOCKED: ATOM      2  C   UNL d   1     -16.810  12.873   7.397 -0.03 -0.07    +0.194 C 
DOCKED: ATOM      3  C   UNL d   1     -15.975  11.644   7.761 -0.06 -0.08    +0.194 C 
DOCKED: ATOM      4  C   UNL d   1     -14.948  11.276   6.693 -0.09 -0.07    +0.194 C 
DOCKED: ATOM      5  C   UNL d   1     -15.510  11.243   5.277 -0.04 -0.04    +0.194 C 
DOCKED: ATOM      6  C   UNL d   1     -16.396  12.443   4.934 -0.02 -0.04    +0.194 C 
DOCKED: ENDROOT
DOCKED: BRANCH   1   7
DOCKED: ATOM      7  O   UNL d   1     -18.055  13.986   5.676 +0.00 +0.04    -0.278 OA
DOCKED: BRANCH   7   8
DOCKED: ATOM      8  P   UNL d   1     -19.609  14.177   5.993 +0.00 -0.04    +0.473 P 
DOCKED: ATOM      9  O   UNL d   1     -20.533  13.686   4.935 +0.00 +0.01    -0.228 OA
DOCKED: BRANCH   8  10
DOCKED: ATOM     10  O   UNL d   1     -19.811  13.441   7.394 +0.00 +0.03    -0.303 OA
DOCKED: ATOM     11  H   UNL d   1     -19.666  14.076   8.120 +0.00 -0.03    +0.222 HD
DOCKED: ENDBRANCH   8  10
DOCKED: BRANCH   8  12
DOCKED: ATOM     12  O   UNL d   1     -19.764  15.706   6.395 +0.00 +0.03    -0.303 OA
DOCKED: ATOM     13  H   UNL d   1     -18.961  16.074   6.828 +0.00 -0.03    +0.222 HD
DOCKED: ENDBRANCH   8  12
DOCKED: ENDBRANCH   7   8
DOCKED: ENDBRANCH   1   7
DOCKED: BRANCH   2  14
DOCKED: ATOM     14  O   UNL d   1     -15.958  14.025   7.412 -0.06 +0.19    -0.278 OA
DOCKED: BRANCH  14  15
DOCKED: ATOM     15  P   UNL d   1     -16.291  15.147   8.505 -0.04 -0.33    +0.473 P 
DOCKED: ATOM     16  O   UNL d   1     -15.640  16.482   8.318 -0.06 +0.15    -0.228 OA
DOCKED: BRANCH  15  17
DOCKED: ATOM     17  O   UNL d   1     -17.882  15.231   8.502 -0.01 +0.09    -0.303 OA
DOCKED: ATOM     18  H   UNL d   1     -18.248  14.934   7.647 +0.01 -0.05    +0.222 HD
DOCKED: ENDBRANCH  15  17
DOCKED: BRANCH  15  19
DOCKED: ATOM     19  O   UNL d   1     -16.011  14.437   9.901 -0.01 +0.33    -0.303 OA
DOCKED: ATOM     20  H   UNL d   1     -15.327  13.747   9.824 -0.52 -0.46    +0.222 HD
DOCKED: ENDBRANCH  15  19
DOCKED: ENDBRANCH  14  15
DOCKED: ENDBRANCH   2  14
DOCKED: BRANCH   6  21
DOCKED: ATOM     21  O   UNL d   1     -17.104  12.105   3.744 -0.02 +0.03    -0.278 OA
DOCKED: BRANCH  21  22
DOCKED: ATOM     22  P   UNL d   1     -16.640  12.716   2.345 -0.07 -0.06    +0.473 P 
DOCKED: ATOM     23  O   UNL d   1     -15.225  13.168   2.208 -0.11 +0.03    -0.228 OA
DOCKED: BRANCH  22  24
DOCKED: ATOM     24  O   UNL d   1     -17.076  11.572   1.329 -0.15 +0.08    -0.303 OA
DOCKED: ATOM     25  H   UNL d   1     -16.319  10.939   1.233 -0.46 -0.11    +0.222 HD
DOCKED: ENDBRANCH  22  24
DOCKED: BRANCH  22  26
DOCKED: ATOM     26  O   UNL d   1     -17.762  13.832   2.089 -0.03 +0.02    -0.303 OA
DOCKED: ATOM     27  H   UNL d   1     -18.139  14.112   2.948 +0.02 -0.02    +0.222 HD
DOCKED: ENDBRANCH  22  26
DOCKED: ENDBRANCH  21  22
DOCKED: ENDBRANCH   6  21
DOCKED: BRANCH   3  28
DOCKED: ATOM     28  O   UNL d   1     -15.216  11.969   8.918 -0.09 +0.27    -0.278 OA
DOCKED: BRANCH  28  29
DOCKED: ATOM     29  P   UNL d   1     -15.464  11.195  10.288 -0.12 -0.23    +0.473 P 
DOCKED: ATOM     30  O   UNL d   1     -16.848  10.697  10.500 -0.05 +0.04    -0.228 OA
DOCKED: BRANCH  29  31
DOCKED: ATOM     31  O   UNL d   1     -14.303  10.097  10.202 -0.23 +0.05    -0.303 OA
DOCKED: ATOM     32  H   UNL d   1     -14.005  10.027   9.266 +0.07 -0.05    +0.222 HD
DOCKED: ENDBRANCH  29  31
DOCKED: BRANCH  29  33
DOCKED: ATOM     33  O   UNL d   1     -14.897  12.224  11.362 -0.13 +0.26    -0.303 OA
DOCKED: ATOM     34  H   UNL d   1     -14.666  13.070  10.905 -0.47 -0.45    +0.222 HD
DOCKED: ENDBRANCH  29  33
DOCKED: ENDBRANCH  28  29
DOCKED: ENDBRANCH   3  28
DOCKED: BRANCH   5  35
DOCKED: ATOM     35  O   UNL d   1     -14.378  11.295   4.411 -0.07 +0.06    -0.278 OA
DOCKED: BRANCH  35  36
DOCKED: ATOM     36  P   UNL d   1     -13.991  10.032   3.516 -0.19 -0.06    +0.473 P 
DOCKED: ATOM     37  O   UNL d   1     -14.632   9.977   2.166 -0.24 +0.04    -0.228 OA
DOCKED: BRANCH  36  38
DOCKED: ATOM     38  O   UNL d   1     -12.402  10.131   3.483 -0.33 +0.04    -0.303 OA
DOCKED: ATOM     39  H   UNL d   1     -12.023   9.397   4.013 +0.09 -0.02    +0.222 HD
DOCKED: ENDBRANCH  36  38
DOCKED: BRANCH  36  40
DOCKED: ATOM     40  O   UNL d   1     -14.278   8.817   4.502 -0.12 +0.03    -0.303 OA
DOCKED: ATOM     41  H   UNL d   1     -14.103   9.059   5.439 +0.09 -0.03    +0.222 HD
DOCKED: ENDBRANCH  36  40
DOCKED: ENDBRANCH  35  36
DOCKED: ENDBRANCH   5  35
DOCKED: BRANCH   4  42
DOCKED: ATOM     42  O   UNL d   1     -14.490   9.954   6.995 -0.08 +0.06    -0.278 OA
DOCKED: BRANCH  42  43
DOCKED: ATOM     43  P   UNL d   1     -12.973   9.747   7.444 -0.28 -0.10    +0.473 P 
DOCKED: ATOM     44  O   UNL d   1     -12.667   8.572   8.305 -0.76 +0.01    -0.228 OA
DOCKED: BRANCH  43  45
DOCKED: ATOM     45  O   UNL d   1     -12.195   9.757   6.056 -0.10 +0.09    -0.303 OA
DOCKED: ATOM     46  H   UNL d   1     -12.739  10.147   5.343 +0.11 -0.05    +0.222 HD
DOCKED: ENDBRANCH  43  45
DOCKED: BRANCH  43  47
DOCKED: ATOM     47  O   UNL d   1     -12.573  11.175   8.052 -0.50 +0.17    -0.303 OA
DOCKED: ATOM     48  H   UNL d   1     -13.150  11.372   8.819 -0.02 -0.19    +0.222 HD
DOCKED: ENDBRANCH  43  47
DOCKED: ENDBRANCH  42  43
DOCKED: ENDBRANCH   4  42
DOCKED: TORSDOF 24
DOCKED: TER
DOCKED: ENDMDL
________________________________________________________________________________


	BEGINNING GENETIC ALGORITHM DOCKING 73 of 100
Run: 73 Seed: 574059999 299162827 [ Run 73 of 100 GA/GALS ]
Beginning LAMARCKIAN GENETIC ALGORITHM (LGA), with a maximum of 25000000 energy evaluations.

Final-Value: -19.078


	FINAL GENETIC ALGORITHM DOCKED STATE
	_______________________________________________


Detailed state:  trans 18.155 -12.563 -4.392 quatxyzw -0.325951 0.550498 0.683192 -0.352075 center 0.035 0.082 -0.065 ntor 24 133.9528 153.6763 -180.0000 -13.9329 81.3557 -132.6792 -21.1008 -29.1077 -24.6837 68.7020 69.8505 -114.2429 134.8585 174.3343 111.6705 -33.7275 -37.6186 116.8702 -2.4469 16.9045 -9.6770 6.4580 12.0369 -1.1251
State:	 18.155 -12.563  -4.392  -0.348  0.588  0.730 -138.771    133.95  153.68 -180.00  -13.93   81.36 -132.68  -21.10  -29.11  -24.68   68.70   69.85 -114.24  134.86  174.33  111.67  -33.73  -37.62  116.87   -2.45   16.90   -9.68    6.46   12.04   -1.13

DOCKED: MODEL       73
DOCKED: USER    Run = 73
DOCKED: USER    DPF = D:/Protein_go_brrr/autodock/final/mut_D99N/IHP/dock.dpf
DOCKED: USER  
DOCKED: USER    Estimated Free Energy of Binding    =   +2.63 kcal/mol  [=(1)+(2)+(3)-(4)]
DOCKED: USER    
DOCKED: USER    (1) Final Intermolecular Energy     =   -4.53 kcal/mol
DOCKED: USER        vdW + Hbond + desolv Energy     =   -4.42 kcal/mol
DOCKED: USER        Electrostatic Energy            =   -0.11 kcal/mol
DOCKED: USER    (2) Final Total Internal Energy     =  -14.55 kcal/mol
DOCKED: USER    (3) Torsional Free Energy           =   +7.16 kcal/mol
DOCKED: USER    (4) Unbound System's Energy  [=(2)] =  -14.55 kcal/mol
DOCKED: USER    
DOCKED: USER    
DOCKED: USER    NEWDPF move IHP_ideal_opt.pdbqt
DOCKED: USER    NEWDPF about 0.035000 0.082000 -0.065000
DOCKED: USER    NEWDPF tran0 18.155307 -12.563480 -4.391872
DOCKED: USER    NEWDPF quaternion0 -0.325951 0.550498 0.683192 -0.352075
DOCKED: USER    NEWDPF axisangle0 -0.348249 0.588156 0.729928 -138.771416
DOCKED: USER    NEWDPF quat0 -0.348249 0.588156 0.729928 -138.771416
DOCKED: USER    NEWDPF dihe0 133.95 153.68 -180.00 -13.93 81.36 -132.68 -21.10 -29.11 -24.68 68.70 69.85 -114.24 134.86 174.33 111.67 -33.73 -37.62 116.87 -2.45 16.90 -9.68 6.46 12.04 -1.13 
DOCKED: USER  keepresnum = 1 
DOCKED: USER  
DOCKED: REMARK  24 active torsions:
DOCKED: REMARK  status: ('A' for Active; 'I' for Inactive)
DOCKED: REMARK    1  A    between atoms: C_1  and  O_7 
DOCKED: REMARK    2  A    between atoms: C_2  and  O_12 
DOCKED: REMARK    3  A    between atoms: C_3  and  O_17 
DOCKED: REMARK    4  A    between atoms: C_4  and  O_22 
DOCKED: REMARK    5  A    between atoms: C_5  and  O_27 
DOCKED: REMARK    6  A    between atoms: C_6  and  O_32 
DOCKED: REMARK    7  A    between atoms: O_7  and  P_8 
DOCKED: REMARK    8  A    between atoms: P_8  and  O_10 
DOCKED: REMARK    9  A    between atoms: P_8  and  O_11 
DOCKED: REMARK   10  A    between atoms: O_12  and  P_13 
DOCKED: REMARK   11  A    between atoms: P_13  and  O_15 
DOCKED: REMARK   12  A    between atoms: P_13  and  O_16 
DOCKED: REMARK   13  A    between atoms: O_17  and  P_18 
DOCKED: REMARK   14  A    between atoms: P_18  and  O_20 
DOCKED: REMARK   15  A    between atoms: P_18  and  O_21 
DOCKED: REMARK   16  A    between atoms: O_22  and  P_23 
DOCKED: REMARK   17  A    between atoms: P_23  and  O_25 
DOCKED: REMARK   18  A    between atoms: P_23  and  O_26 
DOCKED: REMARK   19  A    between atoms: O_27  and  P_28 
DOCKED: REMARK   20  A    between atoms: P_28  and  O_30 
DOCKED: REMARK   21  A    between atoms: P_28  and  O_31 
DOCKED: REMARK   22  A    between atoms: O_32  and  P_33 
DOCKED: REMARK   23  A    between atoms: P_33  and  O_35 
DOCKED: REMARK   24  A    between atoms: P_33  and  O_36 
DOCKED: USER                              x       y       z     vdW  Elec       q    Type
DOCKED: USER                           _______ _______ _______ _____ _____    ______ ____
DOCKED: ROOT
DOCKED: ATOM      1  C   UNL d   1      18.179 -11.504  -5.756 -0.15 +0.02    +0.194 C 
DOCKED: ATOM      2  C   UNL d   1      19.549 -11.902  -5.204 -0.09 +0.01    +0.194 C 
DOCKED: ATOM      3  C   UNL d   1      19.577 -11.861  -3.674 -0.09 +0.00    +0.194 C 
DOCKED: ATOM      4  C   UNL d   1      18.443 -12.654  -3.031 -0.16 -0.01    +0.194 C 
DOCKED: ATOM      5  C   UNL d   1      17.071 -12.374  -3.630 -0.20 -0.01    +0.194 C 
DOCKED: ATOM      6  C   UNL d   1      17.056 -12.354  -5.160 -0.14 -0.00    +0.194 C 
DOCKED: ENDROOT
DOCKED: BRANCH   1   7
DOCKED: ATOM      7  O   UNL d   1      18.184 -11.733  -7.167 -0.10 -0.02    -0.278 OA
DOCKED: BRANCH   7   8
DOCKED: ATOM      8  P   UNL d   1      17.807 -10.519  -8.135 -0.16 +0.07    +0.473 P 
DOCKED: ATOM      9  O   UNL d   1      17.687 -10.874  -9.575 -0.11 -0.01    -0.228 OA
DOCKED: BRANCH   8  10
DOCKED: ATOM     10  O   UNL d   1      16.456  -9.937  -7.516 -0.25 -0.04    -0.303 OA
DOCKED: ATOM     11  H   UNL d   1      16.008 -10.632  -6.998 +0.11 +0.01    +0.222 HD
DOCKED: ENDBRANCH   8  10
DOCKED: BRANCH   8  12
DOCKED: ATOM     12  O   UNL d   1      18.852  -9.374  -7.787 -0.55 -0.11    -0.303 OA
DOCKED: ATOM     13  H   UNL d   1      19.520  -9.234  -8.495 +0.06 +0.05    +0.222 HD
DOCKED: ENDBRANCH   8  12
DOCKED: ENDBRANCH   7   8
DOCKED: ENDBRANCH   1   7
DOCKED: BRANCH   2  14
DOCKED: ATOM     14  O   UNL d   1      19.856 -13.235  -5.631 -0.02 -0.01    -0.278 OA
DOCKED: BRANCH  14  15
DOCKED: ATOM     15  P   UNL d   1      21.403 -13.572  -5.868 -0.00 +0.01    +0.473 P 
DOCKED: ATOM     16  O   UNL d   1      21.757 -14.228  -7.166 -0.00 -0.00    -0.228 OA
DOCKED: BRANCH  15  17
DOCKED: ATOM     17  O   UNL d   1      22.141 -12.175  -5.661 -0.01 -0.01    -0.303 OA
DOCKED: ATOM     18  H   UNL d   1      22.319 -12.009  -4.715 +0.02 +0.01    +0.222 HD
DOCKED: ENDBRANCH  15  17
DOCKED: BRANCH  15  19
DOCKED: ATOM     19  O   UNL d   1      21.842 -14.362  -4.559 -0.00 -0.01    -0.303 OA
DOCKED: ATOM     20  H   UNL d   1      21.927 -13.768  -3.790 +0.01 +0.01    +0.222 HD
DOCKED: ENDBRANCH  15  19
DOCKED: ENDBRANCH  14  15
DOCKED: ENDBRANCH   2  14
DOCKED: BRANCH   6  21
DOCKED: ATOM     21  O   UNL d   1      15.824 -11.753  -5.553 -0.14 +0.01    -0.278 OA
DOCKED: BRANCH  21  22
DOCKED: ATOM     22  P   UNL d   1      14.710 -12.633  -6.280 -0.07 +0.01    +0.473 P 
DOCKED: ATOM     23  O   UNL d   1      13.280 -12.383  -5.938 -0.17 -0.01    -0.228 OA
DOCKED: BRANCH  22  24
DOCKED: ATOM     24  O   UNL d   1      15.076 -12.420  -7.814 -0.12 -0.01    -0.303 OA
DOCKED: ATOM     25  H   UNL d   1      15.989 -12.038  -7.862 +0.08 +0.01    +0.222 HD
DOCKED: ENDBRANCH  22  24
DOCKED: BRANCH  22  26
DOCKED: ATOM     26  O   UNL d   1      15.246 -14.120  -6.015 -0.04 -0.00    -0.303 OA
DOCKED: ATOM     27  H   UNL d   1      15.398 -14.242  -5.056 +0.07 +0.00    +0.222 HD
DOCKED: ENDBRANCH  22  26
DOCKED: ENDBRANCH  21  22
DOCKED: ENDBRANCH   6  21
DOCKED: BRANCH   3  28
DOCKED: ATOM     28  O   UNL d   1      20.774 -12.501  -3.251 -0.05 -0.01    -0.278 OA
DOCKED: BRANCH  28  29
DOCKED: ATOM     29  P   UNL d   1      21.884 -11.684  -2.453 -0.06 +0.02    +0.473 P 
DOCKED: ATOM     30  O   UNL d   1      22.455 -10.513  -3.167 -0.07 -0.01    -0.228 OA
DOCKED: BRANCH  29  31
DOCKED: ATOM     31  O   UNL d   1      21.093 -11.391  -1.094 -0.16 +0.01    -0.303 OA
DOCKED: ATOM     32  H   UNL d   1      20.463 -12.131  -0.931 +0.06 -0.00    +0.222 HD
DOCKED: ENDBRANCH  29  31
DOCKED: BRANCH  29  33
DOCKED: ATOM     33  O   UNL d   1      22.902 -12.833  -2.026 -0.01 -0.02    -0.303 OA
DOCKED: ATOM     34  H   UNL d   1      22.878 -13.551  -2.705 +0.02 +0.01    +0.222 HD
DOCKED: ENDBRANCH  29  33
DOCKED: ENDBRANCH  28  29
DOCKED: ENDBRANCH   3  28
DOCKED: BRANCH   5  35
DOCKED: ATOM     35  O   UNL d   1      16.239 -13.456  -3.217 -0.10 +0.01    -0.278 OA
DOCKED: BRANCH  35  36
DOCKED: ATOM     36  P   UNL d   1      14.713 -13.196  -2.833 -0.18 -0.02    +0.473 P 
DOCKED: ATOM     37  O   UNL d   1      14.210 -11.811  -3.092 -0.34 +0.03    -0.228 OA
DOCKED: BRANCH  36  38
DOCKED: ATOM     38  O   UNL d   1      13.969 -14.329  -3.670 -0.10 -0.03    -0.303 OA
DOCKED: ATOM     39  H   UNL d   1      13.671 -13.953  -4.526 +0.11 +0.01    +0.222 HD
DOCKED: ENDBRANCH  36  38
DOCKED: BRANCH  36  40
DOCKED: ATOM     40  O   UNL d   1      14.645 -13.720  -1.334 -0.28 +0.07    -0.303 OA
DOCKED: ATOM     41  H   UNL d   1      15.517 -13.655  -0.885 -0.47 -0.15    +0.222 HD
DOCKED: ENDBRANCH  36  40
DOCKED: ENDBRANCH  35  36
DOCKED: ENDBRANCH   5  35
DOCKED: BRANCH   4  42
DOCKED: ATOM     42  O   UNL d   1      18.390 -12.261  -1.656 -0.24 +0.02    -0.278 OA
DOCKED: BRANCH  42  43
DOCKED: ATOM     43  P   UNL d   1      18.788 -13.322  -0.534 -0.06 -0.03    +0.473 P 
DOCKED: ATOM     44  O   UNL d   1      19.108 -12.800   0.824 -0.19 +0.01    -0.228 OA
DOCKED: BRANCH  43  45
DOCKED: ATOM     45  O   UNL d   1      17.566 -14.341  -0.567 -0.13 +0.06    -0.303 OA
DOCKED: ATOM     46  H   UNL d   1      16.877 -14.053  -1.199 +0.04 -0.05    +0.222 HD
DOCKED: ENDBRANCH  43  45
DOCKED: BRANCH  43  47
DOCKED: ATOM     47  O   UNL d   1      19.946 -14.180  -1.235 -0.03 +0.00    -0.303 OA
DOCKED: ATOM     48  H   UNL d   1      20.719 -13.602  -1.404 +0.04 +0.00    +0.222 HD
DOCKED: ENDBRANCH  43  47
DOCKED: ENDBRANCH  42  43
DOCKED: ENDBRANCH   4  42
DOCKED: TORSDOF 24
DOCKED: TER
DOCKED: ENDMDL
________________________________________________________________________________


	BEGINNING GENETIC ALGORITHM DOCKING 74 of 100
Run: 74 Seed: 450694427 552656482 [ Run 74 of 100 GA/GALS ]
Beginning LAMARCKIAN GENETIC ALGORITHM (LGA), with a maximum of 25000000 energy evaluations.

Final-Value: -18.369


	FINAL GENETIC ALGORITHM DOCKED STATE
	_______________________________________________


Detailed state:  trans -15.407 12.231 -10.744 quatxyzw 0.362280 -0.351808 0.658355 -0.558169 center 0.035 0.082 -0.065 ntor 24 22.4446 76.1689 65.6768 138.7146 46.1824 -177.0989 -103.3325 43.5538 -36.3577 99.5955 37.8173 145.9702 147.7222 -15.5944 131.3462 23.5417 -44.9698 -175.2423 32.0140 -25.8159 -38.7483 170.5154 154.6295 -13.8131
State:	-15.407  12.231 -10.744   0.437 -0.424  0.793 -112.142     22.44   76.17   65.68  138.71   46.18 -177.10 -103.33   43.55  -36.36   99.60   37.82  145.97  147.72  -15.59  131.35   23.54  -44.97 -175.24   32.01  -25.82  -38.75  170.52  154.63  -13.81

DOCKED: MODEL       74
DOCKED: USER    Run = 74
DOCKED: USER    DPF = D:/Protein_go_brrr/autodock/final/mut_D99N/IHP/dock.dpf
DOCKED: USER  
DOCKED: USER    Estimated Free Energy of Binding    =   +3.03 kcal/mol  [=(1)+(2)+(3)-(4)]
DOCKED: USER    
DOCKED: USER    (1) Final Intermolecular Energy     =   -4.13 kcal/mol
DOCKED: USER        vdW + Hbond + desolv Energy     =   -4.13 kcal/mol
DOCKED: USER        Electrostatic Energy            =   -0.01 kcal/mol
DOCKED: USER    (2) Final Total Internal Energy     =  -14.23 kcal/mol
DOCKED: USER    (3) Torsional Free Energy           =   +7.16 kcal/mol
DOCKED: USER    (4) Unbound System's Energy  [=(2)] =  -14.23 kcal/mol
DOCKED: USER    
DOCKED: USER    
DOCKED: USER    NEWDPF move IHP_ideal_opt.pdbqt
DOCKED: USER    NEWDPF about 0.035000 0.082000 -0.065000
DOCKED: USER    NEWDPF tran0 -15.406620 12.231226 -10.743565
DOCKED: USER    NEWDPF quaternion0 0.362280 -0.351808 0.658355 -0.558169
DOCKED: USER    NEWDPF axisangle0 0.436626 -0.424004 0.793460 -112.141502
DOCKED: USER    NEWDPF quat0 0.436626 -0.424004 0.793460 -112.141502
DOCKED: USER    NEWDPF dihe0 22.44 76.17 65.68 138.71 46.18 -177.10 -103.33 43.55 -36.36 99.60 37.82 145.97 147.72 -15.59 131.35 23.54 -44.97 -175.24 32.01 -25.82 -38.75 170.52 154.63 -13.81 
DOCKED: USER  keepresnum = 1 
DOCKED: USER  
DOCKED: REMARK  24 active torsions:
DOCKED: REMARK  status: ('A' for Active; 'I' for Inactive)
DOCKED: REMARK    1  A    between atoms: C_1  and  O_7 
DOCKED: REMARK    2  A    between atoms: C_2  and  O_12 
DOCKED: REMARK    3  A    between atoms: C_3  and  O_17 
DOCKED: REMARK    4  A    between atoms: C_4  and  O_22 
DOCKED: REMARK    5  A    between atoms: C_5  and  O_27 
DOCKED: REMARK    6  A    between atoms: C_6  and  O_32 
DOCKED: REMARK    7  A    between atoms: O_7  and  P_8 
DOCKED: REMARK    8  A    between atoms: P_8  and  O_10 
DOCKED: REMARK    9  A    between atoms: P_8  and  O_11 
DOCKED: REMARK   10  A    between atoms: O_12  and  P_13 
DOCKED: REMARK   11  A    between atoms: P_13  and  O_15 
DOCKED: REMARK   12  A    between atoms: P_13  and  O_16 
DOCKED: REMARK   13  A    between atoms: O_17  and  P_18 
DOCKED: REMARK   14  A    between atoms: P_18  and  O_20 
DOCKED: REMARK   15  A    between atoms: P_18  and  O_21 
DOCKED: REMARK   16  A    between atoms: O_22  and  P_23 
DOCKED: REMARK   17  A    between atoms: P_23  and  O_25 
DOCKED: REMARK   18  A    between atoms: P_23  and  O_26 
DOCKED: REMARK   19  A    between atoms: O_27  and  P_28 
DOCKED: REMARK   20  A    between atoms: P_28  and  O_30 
DOCKED: REMARK   21  A    between atoms: P_28  and  O_31 
DOCKED: REMARK   22  A    between atoms: O_32  and  P_33 
DOCKED: REMARK   23  A    between atoms: P_33  and  O_35 
DOCKED: REMARK   24  A    between atoms: P_33  and  O_36 
DOCKED: USER                              x       y       z     vdW  Elec       q    Type
DOCKED: USER                           _______ _______ _______ _____ _____    ______ ____
DOCKED: ROOT
DOCKED: ATOM      1  C   UNL d   1     -14.604  12.261  -9.214 -0.13 -0.07    +0.194 C 
DOCKED: ATOM      2  C   UNL d   1     -13.697  12.086 -10.433 -0.20 -0.08    +0.194 C 
DOCKED: ATOM      3  C   UNL d   1     -14.285  11.096 -11.440 -0.20 -0.12    +0.194 C 
DOCKED: ATOM      4  C   UNL d   1     -15.724  11.422 -11.834 -0.11 -0.10    +0.194 C 
DOCKED: ATOM      5  C   UNL d   1     -16.639  11.717 -10.652 -0.09 -0.10    +0.194 C 
DOCKED: ATOM      6  C   UNL d   1     -16.026  12.659  -9.614 -0.09 -0.07    +0.194 C 
DOCKED: ENDROOT
DOCKED: BRANCH   1   7
DOCKED: ATOM      7  O   UNL d   1     -14.075  13.320  -8.412 -0.10 +0.06    -0.278 OA
DOCKED: BRANCH   7   8
DOCKED: ATOM      8  P   UNL d   1     -13.026  12.952  -7.265 -0.21 -0.07    +0.473 P 
DOCKED: ATOM      9  O   UNL d   1     -12.863  13.983  -6.204 -0.24 +0.01    -0.228 OA
DOCKED: BRANCH   8  10
DOCKED: ATOM     10  O   UNL d   1     -13.541  11.550  -6.705 -0.74 +0.10    -0.303 OA
DOCKED: ATOM     11  H   UNL d   1     -13.517  11.559  -5.730 -0.43 -0.05    +0.222 HD
DOCKED: ENDBRANCH   8  10
DOCKED: BRANCH   8  12
DOCKED: ATOM     12  O   UNL d   1     -11.701  12.534  -8.037 -0.17 +0.04    -0.303 OA
DOCKED: ATOM     13  H   UNL d   1     -11.588  13.006  -8.892 +0.10 -0.03    +0.222 HD
DOCKED: ENDBRANCH   8  12
DOCKED: ENDBRANCH   7   8
DOCKED: ENDBRANCH   1   7
DOCKED: BRANCH   2  14
DOCKED: ATOM     14  O   UNL d   1     -13.535  13.354 -11.081 -0.08 +0.08    -0.278 OA
DOCKED: BRANCH  14  15
DOCKED: ATOM     15  P   UNL d   1     -12.122  14.082 -10.887 -0.08 -0.11    +0.473 P 
DOCKED: ATOM     16  O   UNL d   1     -10.906  13.210 -10.925 -0.22 +0.07    -0.228 OA
DOCKED: BRANCH  15  17
DOCKED: ATOM     17  O   UNL d   1     -12.109  15.209 -12.013 -0.02 +0.06    -0.303 OA
DOCKED: ATOM     18  H   UNL d   1     -12.630  14.934 -12.792 +0.04 -0.06    +0.222 HD
DOCKED: ENDBRANCH  15  17
DOCKED: BRANCH  15  19
DOCKED: ATOM     19  O   UNL d   1     -12.301  14.951  -9.567 -0.03 +0.04    -0.303 OA
DOCKED: ATOM     20  H   UNL d   1     -12.218  14.406  -8.763 +0.07 -0.03    +0.222 HD
DOCKED: ENDBRANCH  15  19
DOCKED: ENDBRANCH  14  15
DOCKED: ENDBRANCH   2  14
DOCKED: BRANCH   6  21
DOCKED: ATOM     21  O   UNL d   1     -16.832  12.563  -8.442 -0.10 +0.10    -0.278 OA
DOCKED: BRANCH  21  22
DOCKED: ATOM     22  P   UNL d   1     -17.146  13.872  -7.586 -0.06 -0.10    +0.473 P 
DOCKED: ATOM     23  O   UNL d   1     -18.298  13.836  -6.640 -0.09 +0.04    -0.228 OA
DOCKED: BRANCH  22  24
DOCKED: ATOM     24  O   UNL d   1     -15.735  14.165  -6.910 -0.11 +0.06    -0.303 OA
DOCKED: ATOM     25  H   UNL d   1     -15.203  13.330  -6.935 +0.08 -0.04    +0.222 HD
DOCKED: ENDBRANCH  22  24
DOCKED: BRANCH  22  26
DOCKED: ATOM     26  O   UNL d   1     -17.207  14.998  -8.726 -0.01 +0.04    -0.303 OA
DOCKED: ATOM     27  H   UNL d   1     -17.182  14.569  -9.605 +0.02 -0.04    +0.222 HD
DOCKED: ENDBRANCH  22  26
DOCKED: ENDBRANCH  21  22
DOCKED: ENDBRANCH   6  21
DOCKED: BRANCH   3  28
DOCKED: ATOM     28  O   UNL d   1     -13.532  11.207 -12.641 -0.26 +0.19    -0.278 OA
DOCKED: BRANCH  28  29
DOCKED: ATOM     29  P   UNL d   1     -13.799  12.410 -13.650 -0.13 -0.29    +0.473 P 
DOCKED: ATOM     30  O   UNL d   1     -14.899  13.333 -13.270 -0.04 +0.08    -0.228 OA
DOCKED: BRANCH  29  31
DOCKED: ATOM     31  O   UNL d   1     -12.327  13.032 -13.739 +0.00 +0.21    -0.303 OA
DOCKED: ATOM     32  H   UNL d   1     -11.997  13.191 -12.824 -0.20 -0.14    +0.222 HD
DOCKED: ENDBRANCH  29  31
DOCKED: BRANCH  29  33
DOCKED: ATOM     33  O   UNL d   1     -13.945  11.651 -15.042 -0.18 +0.34    -0.303 OA
DOCKED: ATOM     34  H   UNL d   1     -14.903  11.595 -15.278 +0.04 -0.19    +0.222 HD
DOCKED: ENDBRANCH  29  33
DOCKED: ENDBRANCH  28  29
DOCKED: ENDBRANCH   3  28
DOCKED: BRANCH   5  35
DOCKED: ATOM     35  O   UNL d   1     -17.777  12.380 -11.199 -0.01 +0.09    -0.278 OA
DOCKED: BRANCH  35  36
DOCKED: ATOM     36  P   UNL d   1     -17.675  13.901 -11.667 +0.01 -0.10    +0.473 P 
DOCKED: ATOM     37  O   UNL d   1     -16.339  14.547 -11.474 -0.00 +0.04    -0.228 OA
DOCKED: BRANCH  36  38
DOCKED: ATOM     38  O   UNL d   1     -18.143  13.808 -13.186 +0.00 +0.06    -0.303 OA
DOCKED: ATOM     39  H   UNL d   1     -17.362  13.914 -13.770 +0.01 -0.05    +0.222 HD
DOCKED: ENDBRANCH  36  38
DOCKED: BRANCH  36  40
DOCKED: ATOM     40  O   UNL d   1     -18.913  14.569 -10.925 +0.00 +0.04    -0.303 OA
DOCKED: ATOM     41  H   UNL d   1     -18.861  14.450  -9.950 +0.01 -0.03    +0.222 HD
DOCKED: ENDBRANCH  36  40
DOCKED: ENDBRANCH  35  36
DOCKED: ENDBRANCH   5  35
DOCKED: BRANCH   4  42
DOCKED: ATOM     42  O   UNL d   1     -16.247  10.263 -12.492 -0.09 +0.18    -0.278 OA
DOCKED: BRANCH  42  43
DOCKED: ATOM     43  P   UNL d   1     -16.860  10.419 -13.956 -0.01 -0.23    +0.473 P 
DOCKED: ATOM     44  O   UNL d   1     -18.214   9.847 -14.198 -0.01 +0.08    -0.228 OA
DOCKED: BRANCH  43  45
DOCKED: ATOM     45  O   UNL d   1     -16.760  11.986 -14.212 -0.01 +0.12    -0.303 OA
DOCKED: ATOM     46  H   UNL d   1     -16.912  12.494 -13.390 +0.02 -0.07    +0.222 HD
DOCKED: ENDBRANCH  43  45
DOCKED: BRANCH  43  47
DOCKED: ATOM     47  O   UNL d   1     -15.694   9.859 -14.903 -0.11 +0.26    -0.303 OA
DOCKED: ATOM     48  H   UNL d   1     -14.825  10.097 -14.519 +0.06 -0.24    +0.222 HD
DOCKED: ENDBRANCH  43  47
DOCKED: ENDBRANCH  42  43
DOCKED: ENDBRANCH   4  42
DOCKED: TORSDOF 24
DOCKED: TER
DOCKED: ENDMDL
________________________________________________________________________________


	BEGINNING GENETIC ALGORITHM DOCKING 75 of 100
Run: 75 Seed: 410065602 2144375726 [ Run 75 of 100 GA/GALS ]
Beginning LAMARCKIAN GENETIC ALGORITHM (LGA), with a maximum of 25000000 energy evaluations.

Final-Value: -18.381


	FINAL GENETIC ALGORITHM DOCKED STATE
	_______________________________________________


Detailed state:  trans -12.505 -6.353 -2.282 quatxyzw -0.023895 -0.400674 0.158604 0.902072 center 0.035 0.082 -0.065 ntor 24 82.1269 71.1471 2.9762 109.9143 66.3609 -81.4801 -90.7490 -34.0405 -8.7673 30.5512 109.0893 -179.8609 -72.3462 -74.0678 116.4859 -2.7483 -127.6464 134.6008 72.9072 24.8307 -49.7556 3.8454 155.1031 -7.0824
State:	-12.505  -6.353  -2.282  -0.055 -0.928  0.367 51.136     82.13   71.15    2.98  109.91   66.36  -81.48  -90.75  -34.04   -8.77   30.55  109.09 -179.86  -72.35  -74.07  116.49   -2.75 -127.65  134.60   72.91   24.83  -49.76    3.85  155.10   -7.08

DOCKED: MODEL       75
DOCKED: USER    Run = 75
DOCKED: USER    DPF = D:/Protein_go_brrr/autodock/final/mut_D99N/IHP/dock.dpf
DOCKED: USER  
DOCKED: USER    Estimated Free Energy of Binding    =   +2.32 kcal/mol  [=(1)+(2)+(3)-(4)]
DOCKED: USER    
DOCKED: USER    (1) Final Intermolecular Energy     =   -4.84 kcal/mol
DOCKED: USER        vdW + Hbond + desolv Energy     =   -4.30 kcal/mol
DOCKED: USER        Electrostatic Energy            =   -0.54 kcal/mol
DOCKED: USER    (2) Final Total Internal Energy     =  -13.54 kcal/mol
DOCKED: USER    (3) Torsional Free Energy           =   +7.16 kcal/mol
DOCKED: USER    (4) Unbound System's Energy  [=(2)] =  -13.54 kcal/mol
DOCKED: USER    
DOCKED: USER    
DOCKED: USER    NEWDPF move IHP_ideal_opt.pdbqt
DOCKED: USER    NEWDPF about 0.035000 0.082000 -0.065000
DOCKED: USER    NEWDPF tran0 -12.505247 -6.353198 -2.281895
DOCKED: USER    NEWDPF quaternion0 -0.023895 -0.400674 0.158604 0.902072
DOCKED: USER    NEWDPF axisangle0 -0.055365 -0.928377 0.367493 51.136402
DOCKED: USER    NEWDPF quat0 -0.055365 -0.928377 0.367493 51.136402
DOCKED: USER    NEWDPF dihe0 82.13 71.15 2.98 109.91 66.36 -81.48 -90.75 -34.04 -8.77 30.55 109.09 -179.86 -72.35 -74.07 116.49 -2.75 -127.65 134.60 72.91 24.83 -49.76 3.85 155.10 -7.08 
DOCKED: USER  keepresnum = 1 
DOCKED: USER  
DOCKED: REMARK  24 active torsions:
DOCKED: REMARK  status: ('A' for Active; 'I' for Inactive)
DOCKED: REMARK    1  A    between atoms: C_1  and  O_7 
DOCKED: REMARK    2  A    between atoms: C_2  and  O_12 
DOCKED: REMARK    3  A    between atoms: C_3  and  O_17 
DOCKED: REMARK    4  A    between atoms: C_4  and  O_22 
DOCKED: REMARK    5  A    between atoms: C_5  and  O_27 
DOCKED: REMARK    6  A    between atoms: C_6  and  O_32 
DOCKED: REMARK    7  A    between atoms: O_7  and  P_8 
DOCKED: REMARK    8  A    between atoms: P_8  and  O_10 
DOCKED: REMARK    9  A    between atoms: P_8  and  O_11 
DOCKED: REMARK   10  A    between atoms: O_12  and  P_13 
DOCKED: REMARK   11  A    between atoms: P_13  and  O_15 
DOCKED: REMARK   12  A    between atoms: P_13  and  O_16 
DOCKED: REMARK   13  A    between atoms: O_17  and  P_18 
DOCKED: REMARK   14  A    between atoms: P_18  and  O_20 
DOCKED: REMARK   15  A    between atoms: P_18  and  O_21 
DOCKED: REMARK   16  A    between atoms: O_22  and  P_23 
DOCKED: REMARK   17  A    between atoms: P_23  and  O_25 
DOCKED: REMARK   18  A    between atoms: P_23  and  O_26 
DOCKED: REMARK   19  A    between atoms: O_27  and  P_28 
DOCKED: REMARK   20  A    between atoms: P_28  and  O_30 
DOCKED: REMARK   21  A    between atoms: P_28  and  O_31 
DOCKED: REMARK   22  A    between atoms: O_32  and  P_33 
DOCKED: REMARK   23  A    between atoms: P_33  and  O_35 
DOCKED: REMARK   24  A    between atoms: P_33  and  O_36 
DOCKED: USER                              x       y       z     vdW  Elec       q    Type
DOCKED: USER                           _______ _______ _______ _____ _____    ______ ____
DOCKED: ROOT
DOCKED: ATOM      1  C   UNL d   1     -11.423  -7.665  -2.586 -0.09 -0.09    +0.194 C 
DOCKED: ATOM      2  C   UNL d   1     -12.717  -8.031  -1.857 -0.02 -0.03    +0.194 C 
DOCKED: ATOM      3  C   UNL d   1     -13.063  -7.012  -0.770 -0.02 +0.01    +0.194 C 
DOCKED: ATOM      4  C   UNL d   1     -13.074  -5.572  -1.277 -0.06 +0.02    +0.194 C 
DOCKED: ATOM      5  C   UNL d   1     -11.854  -5.197  -2.108 -0.13 +0.01    +0.194 C 
DOCKED: ATOM      6  C   UNL d   1     -11.471  -6.246  -3.155 -0.12 -0.04    +0.194 C 
DOCKED: ENDROOT
DOCKED: BRANCH   1   7
DOCKED: ATOM      7  O   UNL d   1     -11.263  -8.560  -3.689 -0.08 +0.18    -0.278 OA
DOCKED: BRANCH   7   8
DOCKED: ATOM      8  P   UNL d   1     -11.411 -10.128  -3.422 -0.02 -0.34    +0.473 P 
DOCKED: ATOM      9  O   UNL d   1     -11.225 -10.547  -2.006 -0.07 +0.17    -0.228 OA
DOCKED: BRANCH   8  10
DOCKED: ATOM     10  O   UNL d   1     -12.855 -10.485  -3.997 -0.01 +0.08    -0.303 OA
DOCKED: ATOM     11  H   UNL d   1     -13.540 -10.171  -3.378 +0.01 -0.04    +0.222 HD
DOCKED: ENDBRANCH   8  10
DOCKED: BRANCH   8  12
DOCKED: ATOM     12  O   UNL d   1     -10.451 -10.820  -4.482 -0.11 +0.28    -0.303 OA
DOCKED: ATOM     13  H   UNL d   1      -9.709 -10.240  -4.766 +0.06 -0.29    +0.222 HD
DOCKED: ENDBRANCH   8  12
DOCKED: ENDBRANCH   7   8
DOCKED: ENDBRANCH   1   7
DOCKED: BRANCH   2  14
DOCKED: ATOM     14  O   UNL d   1     -13.791  -8.071  -2.805 -0.00 +0.03    -0.278 OA
DOCKED: BRANCH  14  15
DOCKED: ATOM     15  P   UNL d   1     -15.059  -8.967  -2.412 +0.00 -0.03    +0.473 P 
DOCKED: ATOM     16  O   UNL d   1     -14.851  -9.995  -1.344 +0.00 +0.01    -0.228 OA
DOCKED: BRANCH  15  17
DOCKED: ATOM     17  O   UNL d   1     -16.183  -7.903  -2.034 -0.00 -0.00    -0.303 OA
DOCKED: ATOM     18  H   UNL d   1     -16.181  -7.715  -1.075 +0.01 +0.01    +0.222 HD
DOCKED: ENDBRANCH  15  17
DOCKED: BRANCH  15  19
DOCKED: ATOM     19  O   UNL d   1     -15.599  -9.521  -3.802 +0.00 +0.02    -0.303 OA
DOCKED: ATOM     20  H   UNL d   1     -14.885  -9.921  -4.332 +0.01 -0.02    +0.222 HD
DOCKED: ENDBRANCH  15  19
DOCKED: ENDBRANCH  14  15
DOCKED: ENDBRANCH   2  14
DOCKED: BRANCH   6  21
DOCKED: ATOM     21  O   UNL d   1     -10.153  -5.927  -3.595 -0.19 +0.08    -0.278 OA
DOCKED: BRANCH  21  22
DOCKED: ATOM     22  P   UNL d   1      -9.690  -6.333  -5.066 -0.26 -0.18    +0.473 P 
DOCKED: ATOM     23  O   UNL d   1      -8.735  -5.435  -5.778 -0.39 +0.05    -0.228 OA
DOCKED: BRANCH  22  24
DOCKED: ATOM     24  O   UNL d   1      -9.167  -7.820  -4.844 -0.11 +0.27    -0.303 OA
DOCKED: ATOM     25  H   UNL d   1      -9.284  -8.048  -3.887 -0.42 -0.40    +0.222 HD
DOCKED: ENDBRANCH  22  24
DOCKED: BRANCH  22  26
DOCKED: ATOM     26  O   UNL d   1     -11.097  -6.582  -5.794 -0.15 +0.11    -0.303 OA
DOCKED: ATOM     27  H   UNL d   1     -11.294  -5.824  -6.381 -0.41 -0.12    +0.222 HD
DOCKED: ENDBRANCH  22  26
DOCKED: ENDBRANCH  21  22
DOCKED: ENDBRANCH   6  21
DOCKED: BRANCH   3  28
DOCKED: ATOM     28  O   UNL d   1     -14.395  -7.273  -0.346 -0.00 -0.02    -0.278 OA
DOCKED: BRANCH  28  29
DOCKED: ATOM     29  P   UNL d   1     -14.683  -7.775   1.138 +0.00 +0.07    +0.473 P 
DOCKED: ATOM     30  O   UNL d   1     -13.590  -8.554   1.774 -0.01 -0.02    -0.228 OA
DOCKED: BRANCH  29  31
DOCKED: ATOM     31  O   UNL d   1     -15.084  -6.388   1.828 -0.02 -0.11    -0.303 OA
DOCKED: ATOM     32  H   UNL d   1     -14.497  -5.680   1.475 +0.02 +0.12    +0.222 HD
DOCKED: ENDBRANCH  29  31
DOCKED: BRANCH  29  33
DOCKED: ATOM     33  O   UNL d   1     -16.088  -8.506   0.976 +0.00 -0.02    -0.303 OA
DOCKED: ATOM     34  H   UNL d   1     -16.189  -8.805   0.039 +0.00 +0.01    +0.222 HD
DOCKED: ENDBRANCH  29  33
DOCKED: ENDBRANCH  28  29
DOCKED: ENDBRANCH   3  28
DOCKED: BRANCH   5  35
DOCKED: ATOM     35  O   UNL d   1     -12.215  -4.012  -2.814 -0.19 -0.03    -0.278 OA
DOCKED: BRANCH  35  36
DOCKED: ATOM     36  P   UNL d   1     -13.213  -4.088  -4.057 -0.20 +0.04    +0.473 P 
DOCKED: ATOM     37  O   UNL d   1     -12.586  -4.450  -5.366 -0.36 -0.01    -0.228 OA
DOCKED: BRANCH  36  38
DOCKED: ATOM     38  O   UNL d   1     -14.298  -5.133  -3.540 -0.08 -0.01    -0.303 OA
DOCKED: ATOM     39  H   UNL d   1     -13.938  -6.042  -3.632 +0.06 -0.00    +0.222 HD
DOCKED: ENDBRANCH  36  38
DOCKED: BRANCH  36  40
DOCKED: ATOM     40  O   UNL d   1     -13.962  -2.688  -3.978 -0.29 -0.05    -0.303 OA
DOCKED: ATOM     41  H   UNL d   1     -13.776  -2.222  -3.132 +0.10 +0.04    +0.222 HD
DOCKED: ENDBRANCH  36  40
DOCKED: ENDBRANCH  35  36
DOCKED: ENDBRANCH   5  35
DOCKED: BRANCH   4  42
DOCKED: ATOM     42  O   UNL d   1     -13.074  -4.726  -0.123 -0.08 -0.12    -0.278 OA
DOCKED: BRANCH  42  43
DOCKED: ATOM     43  P   UNL d   1     -14.309  -3.745   0.116 -0.08 +0.27    +0.473 P 
DOCKED: ATOM     44  O   UNL d   1     -14.271  -2.874   1.323 -0.56 -0.36    -0.228 OA
DOCKED: BRANCH  43  45
DOCKED: ATOM     45  O   UNL d   1     -14.393  -2.949  -1.260 -0.11 -0.09    -0.303 OA
DOCKED: ATOM     46  H   UNL d   1     -14.169  -3.522  -2.020 +0.07 +0.04    +0.222 HD
DOCKED: ENDBRANCH  43  45
DOCKED: BRANCH  43  47
DOCKED: ATOM     47  O   UNL d   1     -15.577  -4.720   0.006 -0.02 -0.10    -0.303 OA
DOCKED: ATOM     48  H   UNL d   1     -15.268  -5.630  -0.188 +0.02 +0.05    +0.222 HD
DOCKED: ENDBRANCH  43  47
DOCKED: ENDBRANCH  42  43
DOCKED: ENDBRANCH   4  42
DOCKED: TORSDOF 24
DOCKED: TER
DOCKED: ENDMDL
________________________________________________________________________________


	BEGINNING GENETIC ALGORITHM DOCKING 76 of 100
Run: 76 Seed: 1760063239 1871576512 [ Run 76 of 100 GA/GALS ]
Beginning LAMARCKIAN GENETIC ALGORITHM (LGA), with a maximum of 25000000 energy evaluations.

Final-Value: -18.632


	FINAL GENETIC ALGORITHM DOCKED STATE
	_______________________________________________


Detailed state:  trans -10.734 -7.643 5.431 quatxyzw 0.522474 0.694560 0.428568 0.246855 center 0.035 0.082 -0.065 ntor 24 81.1155 147.6578 150.5508 6.4387 121.9242 119.2062 -62.8437 -6.7105 -5.3578 100.2696 87.8663 -102.5895 143.2574 -178.0986 -176.8976 6.6917 -56.9769 99.4094 -14.9818 7.7975 1.8227 -8.5058 169.3067 9.9786
State:	-10.734  -7.643   5.431   0.539  0.717  0.442 151.417     81.12  147.66  150.55    6.44  121.92  119.21  -62.84   -6.71   -5.36  100.27   87.87 -102.59  143.26 -178.10 -176.90    6.69  -56.98   99.41  -14.98    7.80    1.82   -8.51  169.31    9.98

DOCKED: MODEL       76
DOCKED: USER    Run = 76
DOCKED: USER    DPF = D:/Protein_go_brrr/autodock/final/mut_D99N/IHP/dock.dpf
DOCKED: USER  
DOCKED: USER    Estimated Free Energy of Binding    =   +3.97 kcal/mol  [=(1)+(2)+(3)-(4)]
DOCKED: USER    
DOCKED: USER    (1) Final Intermolecular Energy     =   -3.19 kcal/mol
DOCKED: USER        vdW + Hbond + desolv Energy     =   -3.10 kcal/mol
DOCKED: USER        Electrostatic Energy            =   -0.09 kcal/mol
DOCKED: USER    (2) Final Total Internal Energy     =  -15.44 kcal/mol
DOCKED: USER    (3) Torsional Free Energy           =   +7.16 kcal/mol
DOCKED: USER    (4) Unbound System's Energy  [=(2)] =  -15.44 kcal/mol
DOCKED: USER    
DOCKED: USER    
DOCKED: USER    NEWDPF move IHP_ideal_opt.pdbqt
DOCKED: USER    NEWDPF about 0.035000 0.082000 -0.065000
DOCKED: USER    NEWDPF tran0 -10.734061 -7.643208 5.431346
DOCKED: USER    NEWDPF quaternion0 0.522474 0.694560 0.428568 0.246855
DOCKED: USER    NEWDPF axisangle0 0.539160 0.716741 0.442255 151.417073
DOCKED: USER    NEWDPF quat0 0.539160 0.716741 0.442255 151.417073
DOCKED: USER    NEWDPF dihe0 81.12 147.66 150.55 6.44 121.92 119.21 -62.84 -6.71 -5.36 100.27 87.87 -102.59 143.26 -178.10 -176.90 6.69 -56.98 99.41 -14.98 7.80 1.82 -8.51 169.31 9.98 
DOCKED: USER  keepresnum = 1 
DOCKED: USER  
DOCKED: REMARK  24 active torsions:
DOCKED: REMARK  status: ('A' for Active; 'I' for Inactive)
DOCKED: REMARK    1  A    between atoms: C_1  and  O_7 
DOCKED: REMARK    2  A    between atoms: C_2  and  O_12 
DOCKED: REMARK    3  A    between atoms: C_3  and  O_17 
DOCKED: REMARK    4  A    between atoms: C_4  and  O_22 
DOCKED: REMARK    5  A    between atoms: C_5  and  O_27 
DOCKED: REMARK    6  A    between atoms: C_6  and  O_32 
DOCKED: REMARK    7  A    between atoms: O_7  and  P_8 
DOCKED: REMARK    8  A    between atoms: P_8  and  O_10 
DOCKED: REMARK    9  A    between atoms: P_8  and  O_11 
DOCKED: REMARK   10  A    between atoms: O_12  and  P_13 
DOCKED: REMARK   11  A    between atoms: P_13  and  O_15 
DOCKED: REMARK   12  A    between atoms: P_13  and  O_16 
DOCKED: REMARK   13  A    between atoms: O_17  and  P_18 
DOCKED: REMARK   14  A    between atoms: P_18  and  O_20 
DOCKED: REMARK   15  A    between atoms: P_18  and  O_21 
DOCKED: REMARK   16  A    between atoms: O_22  and  P_23 
DOCKED: REMARK   17  A    between atoms: P_23  and  O_25 
DOCKED: REMARK   18  A    between atoms: P_23  and  O_26 
DOCKED: REMARK   19  A    between atoms: O_27  and  P_28 
DOCKED: REMARK   20  A    between atoms: P_28  and  O_30 
DOCKED: REMARK   21  A    between atoms: P_28  and  O_31 
DOCKED: REMARK   22  A    between atoms: O_32  and  P_33 
DOCKED: REMARK   23  A    between atoms: P_33  and  O_35 
DOCKED: REMARK   24  A    between atoms: P_33  and  O_36 
DOCKED: USER                              x       y       z     vdW  Elec       q    Type
DOCKED: USER                           _______ _______ _______ _____ _____    ______ ____
DOCKED: ROOT
DOCKED: ATOM      1  C   UNL d   1     -11.900  -6.401   5.719 -0.11 +0.10    +0.194 C 
DOCKED: ATOM      2  C   UNL d   1     -12.277  -7.427   4.649 -0.09 +0.07    +0.194 C 
DOCKED: ATOM      3  C   UNL d   1     -11.096  -7.751   3.732 -0.12 +0.05    +0.194 C 
DOCKED: ATOM      4  C   UNL d   1      -9.835  -8.149   4.494 -0.16 +0.04    +0.194 C 
DOCKED: ATOM      5  C   UNL d   1      -9.484  -7.215   5.645 -0.17 +0.06    +0.194 C 
DOCKED: ATOM      6  C   UNL d   1     -10.678  -6.842   6.526 -0.15 +0.06    +0.194 C 
DOCKED: ENDROOT
DOCKED: BRANCH   1   7
DOCKED: ATOM      7  O   UNL d   1     -12.994  -6.284   6.631 -0.06 -0.13    -0.278 OA
DOCKED: BRANCH   7   8
DOCKED: ATOM      8  P   UNL d   1     -13.416  -4.825   7.128 -0.06 +0.30    +0.473 P 
DOCKED: ATOM      9  O   UNL d   1     -14.311  -4.798   8.316 -0.01 -0.08    -0.228 OA
DOCKED: BRANCH   8  10
DOCKED: ATOM     10  O   UNL d   1     -12.025  -4.083   7.371 -0.13 -0.20    -0.303 OA
DOCKED: ATOM     11  H   UNL d   1     -11.632  -4.392   8.209 +0.07 +0.09    +0.222 HD
DOCKED: ENDBRANCH   8  10
DOCKED: BRANCH   8  12
DOCKED: ATOM     12  O   UNL d   1     -13.963  -4.089   5.830 -0.58 -0.49    -0.303 OA
DOCKED: ATOM     13  H   UNL d   1     -14.945  -4.046   5.797 +0.01 +0.24    +0.222 HD
DOCKED: ENDBRANCH   8  12
DOCKED: ENDBRANCH   7   8
DOCKED: ENDBRANCH   1   7
DOCKED: BRANCH   2  14
DOCKED: ATOM     14  O   UNL d   1     -12.702  -8.636   5.291 -0.02 -0.06    -0.278 OA
DOCKED: BRANCH  14  15
DOCKED: ATOM     15  P   UNL d   1     -13.965  -9.382   4.649 +0.00 +0.06    +0.473 P 
DOCKED: ATOM     16  O   UNL d   1     -15.138  -9.612   5.549 -0.00 -0.03    -0.228 OA
DOCKED: BRANCH  15  17
DOCKED: ATOM     17  O   UNL d   1     -14.330  -8.499   3.374 -0.00 -0.05    -0.303 OA
DOCKED: ATOM     18  H   UNL d   1     -13.556  -8.394   2.787 +0.02 +0.04    +0.222 HD
DOCKED: ENDBRANCH  15  17
DOCKED: BRANCH  15  19
DOCKED: ATOM     19  O   UNL d   1     -13.354 -10.685   3.972 -0.00 -0.02    -0.303 OA
DOCKED: ATOM     20  H   UNL d   1     -12.624 -10.467   3.364 +0.01 +0.01    +0.222 HD
DOCKED: ENDBRANCH  15  19
DOCKED: ENDBRANCH  14  15
DOCKED: ENDBRANCH   2  14
DOCKED: BRANCH   6  21
DOCKED: ATOM     21  O   UNL d   1     -10.275  -5.727   7.317 -0.19 -0.09    -0.278 OA
DOCKED: BRANCH  21  22
DOCKED: ATOM     22  P   UNL d   1      -9.830  -5.951   8.833 -0.15 +0.10    +0.473 P 
DOCKED: ATOM     23  O   UNL d   1     -10.133  -4.876   9.822 -0.17 -0.05    -0.228 OA
DOCKED: BRANCH  22  24
DOCKED: ATOM     24  O   UNL d   1     -10.488  -7.363   9.160 -0.04 -0.07    -0.303 OA
DOCKED: ATOM     25  H   UNL d   1     -10.164  -8.016   8.490 +0.06 +0.05    +0.222 HD
DOCKED: ENDBRANCH  22  24
DOCKED: BRANCH  22  26
DOCKED: ATOM     26  O   UNL d   1      -8.284  -6.337   8.665 -0.30 -0.04    -0.303 OA
DOCKED: ATOM     27  H   UNL d   1      -8.206  -7.095   8.051 +0.08 +0.06    +0.222 HD
DOCKED: ENDBRANCH  22  26
DOCKED: ENDBRANCH  21  22
DOCKED: ENDBRANCH   6  21
DOCKED: BRANCH   3  28
DOCKED: ATOM     28  O   UNL d   1     -11.450  -8.895   2.965 -0.02 -0.02    -0.278 OA
DOCKED: BRANCH  28  29
DOCKED: ATOM     29  P   UNL d   1     -11.912  -8.735   1.449 +0.00 -0.00    +0.473 P 
DOCKED: ATOM     30  O   UNL d   1     -12.368  -7.376   1.058 -0.04 -0.03    -0.228 OA
DOCKED: BRANCH  29  31
DOCKED: ATOM     31  O   UNL d   1     -10.620  -9.311   0.701 -0.04 +0.08    -0.303 OA
DOCKED: ATOM     32  H   UNL d   1      -9.894  -9.409   1.359 +0.06 -0.05    +0.222 HD
DOCKED: ENDBRANCH  29  31
DOCKED: BRANCH  29  33
DOCKED: ATOM     33  O   UNL d   1     -12.965  -9.919   1.294 +0.00 +0.01    -0.303 OA
DOCKED: ATOM     34  H   UNL d   1     -13.633  -9.852   2.020 +0.01 +0.01    +0.222 HD
DOCKED: ENDBRANCH  29  33
DOCKED: ENDBRANCH  28  29
DOCKED: ENDBRANCH   3  28
DOCKED: BRANCH   5  35
DOCKED: ATOM     35  O   UNL d   1      -8.567  -7.938   6.465 -0.24 -0.07    -0.278 OA
DOCKED: BRANCH  35  36
DOCKED: ATOM     36  P   UNL d   1      -9.002  -9.319   7.133 -0.07 +0.15    +0.473 P 
DOCKED: ATOM     37  O   UNL d   1     -10.465  -9.626   7.086 -0.03 -0.05    -0.228 OA
DOCKED: BRANCH  36  38
DOCKED: ATOM     38  O   UNL d   1      -8.089 -10.362   6.349 -0.09 -0.10    -0.303 OA
DOCKED: ATOM     39  H   UNL d   1      -8.455 -10.496   5.448 +0.06 +0.04    +0.222 HD
DOCKED: ENDBRANCH  36  38
DOCKED: BRANCH  36  40
DOCKED: ATOM     40  O   UNL d   1      -8.330  -9.228   8.572 +0.05 -0.18    -0.303 OA
DOCKED: ATOM     41  H   UNL d   1      -8.644  -8.441   9.071 +0.06 +0.10    +0.222 HD
DOCKED: ENDBRANCH  36  40
DOCKED: ENDBRANCH  35  36
DOCKED: ENDBRANCH   5  35
DOCKED: BRANCH   4  42
DOCKED: ATOM     42  O   UNL d   1      -8.751  -8.093   3.561 -0.22 -0.02    -0.278 OA
DOCKED: BRANCH  42  43
DOCKED: ATOM     43  P   UNL d   1      -8.211  -9.451   2.922 -0.10 -0.02    +0.473 P 
DOCKED: ATOM     44  O   UNL d   1      -7.736  -9.405   1.511 -0.20 +0.05    -0.228 OA
DOCKED: BRANCH  43  45
DOCKED: ATOM     45  O   UNL d   1      -7.103  -9.912   3.967 -0.13 -0.01    -0.303 OA
DOCKED: ATOM     46  H   UNL d   1      -7.182  -9.425   4.811 +0.10 +0.02    +0.222 HD
DOCKED: ENDBRANCH  43  45
DOCKED: BRANCH  43  47
DOCKED: ATOM     47  O   UNL d   1      -9.394 -10.491   3.220 -0.02 +0.01    -0.303 OA
DOCKED: ATOM     48  H   UNL d   1     -10.131 -10.329   2.597 +0.04 -0.02    +0.222 HD
DOCKED: ENDBRANCH  43  47
DOCKED: ENDBRANCH  42  43
DOCKED: ENDBRANCH   4  42
DOCKED: TORSDOF 24
DOCKED: TER
DOCKED: ENDMDL
________________________________________________________________________________


	BEGINNING GENETIC ALGORITHM DOCKING 77 of 100
Run: 77 Seed: 2034839313 339592496 [ Run 77 of 100 GA/GALS ]
Beginning LAMARCKIAN GENETIC ALGORITHM (LGA), with a maximum of 25000000 energy evaluations.

Final-Value: -19.851


	FINAL GENETIC ALGORITHM DOCKED STATE
	_______________________________________________


Detailed state:  trans 3.453 -14.284 7.541 quatxyzw 0.263892 -0.671612 0.551723 -0.418210 center 0.035 0.082 -0.065 ntor 24 156.6883 69.4007 179.9214 -20.8855 3.6454 -115.0088 -117.3022 -26.1985 78.2771 93.9981 15.3653 -147.6716 134.2782 178.1493 -52.3565 -146.0180 78.6544 -67.3216 48.1630 16.1677 -169.7343 5.8739 14.1184 -165.8514
State:	  3.453 -14.284   7.541   0.291 -0.739  0.607 -130.557    156.69   69.40  179.92  -20.89    3.65 -115.01 -117.30  -26.20   78.28   94.00   15.37 -147.67  134.28  178.15  -52.36 -146.02   78.65  -67.32   48.16   16.17 -169.73    5.87   14.12 -165.85

DOCKED: MODEL       77
DOCKED: USER    Run = 77
DOCKED: USER    DPF = D:/Protein_go_brrr/autodock/final/mut_D99N/IHP/dock.dpf
DOCKED: USER  
DOCKED: USER    Estimated Free Energy of Binding    =   +1.43 kcal/mol  [=(1)+(2)+(3)-(4)]
DOCKED: USER    
DOCKED: USER    (1) Final Intermolecular Energy     =   -5.73 kcal/mol
DOCKED: USER        vdW + Hbond + desolv Energy     =   -5.66 kcal/mol
DOCKED: USER        Electrostatic Energy            =   -0.08 kcal/mol
DOCKED: USER    (2) Final Total Internal Energy     =  -14.12 kcal/mol
DOCKED: USER    (3) Torsional Free Energy           =   +7.16 kcal/mol
DOCKED: USER    (4) Unbound System's Energy  [=(2)] =  -14.12 kcal/mol
DOCKED: USER    
DOCKED: USER    
DOCKED: USER    NEWDPF move IHP_ideal_opt.pdbqt
DOCKED: USER    NEWDPF about 0.035000 0.082000 -0.065000
DOCKED: USER    NEWDPF tran0 3.452655 -14.283896 7.541177
DOCKED: USER    NEWDPF quaternion0 0.263892 -0.671612 0.551723 -0.418210
DOCKED: USER    NEWDPF axisangle0 0.290518 -0.739376 0.607390 -130.556792
DOCKED: USER    NEWDPF quat0 0.290518 -0.739376 0.607390 -130.556792
DOCKED: USER    NEWDPF dihe0 156.69 69.40 179.92 -20.89 3.65 -115.01 -117.30 -26.20 78.28 94.00 15.37 -147.67 134.28 178.15 -52.36 -146.02 78.65 -67.32 48.16 16.17 -169.73 5.87 14.12 -165.85 
DOCKED: USER  keepresnum = 1 
DOCKED: USER  
DOCKED: REMARK  24 active torsions:
DOCKED: REMARK  status: ('A' for Active; 'I' for Inactive)
DOCKED: REMARK    1  A    between atoms: C_1  and  O_7 
DOCKED: REMARK    2  A    between atoms: C_2  and  O_12 
DOCKED: REMARK    3  A    between atoms: C_3  and  O_17 
DOCKED: REMARK    4  A    between atoms: C_4  and  O_22 
DOCKED: REMARK    5  A    between atoms: C_5  and  O_27 
DOCKED: REMARK    6  A    between atoms: C_6  and  O_32 
DOCKED: REMARK    7  A    between atoms: O_7  and  P_8 
DOCKED: REMARK    8  A    between atoms: P_8  and  O_10 
DOCKED: REMARK    9  A    between atoms: P_8  and  O_11 
DOCKED: REMARK   10  A    between atoms: O_12  and  P_13 
DOCKED: REMARK   11  A    between atoms: P_13  and  O_15 
DOCKED: REMARK   12  A    between atoms: P_13  and  O_16 
DOCKED: REMARK   13  A    between atoms: O_17  and  P_18 
DOCKED: REMARK   14  A    between atoms: P_18  and  O_20 
DOCKED: REMARK   15  A    between atoms: P_18  and  O_21 
DOCKED: REMARK   16  A    between atoms: O_22  and  P_23 
DOCKED: REMARK   17  A    between atoms: P_23  and  O_25 
DOCKED: REMARK   18  A    between atoms: P_23  and  O_26 
DOCKED: REMARK   19  A    between atoms: O_27  and  P_28 
DOCKED: REMARK   20  A    between atoms: P_28  and  O_30 
DOCKED: REMARK   21  A    between atoms: P_28  and  O_31 
DOCKED: REMARK   22  A    between atoms: O_32  and  P_33 
DOCKED: REMARK   23  A    between atoms: P_33  and  O_35 
DOCKED: REMARK   24  A    between atoms: P_33  and  O_36 
DOCKED: USER                              x       y       z     vdW  Elec       q    Type
DOCKED: USER                           _______ _______ _______ _____ _____    ______ ____
DOCKED: ROOT
DOCKED: ATOM      1  C   UNL d   1       3.323 -15.134   9.039 -0.11 -0.02    +0.194 C 
DOCKED: ATOM      2  C   UNL d   1       4.716 -15.116   8.408 -0.13 -0.03    +0.194 C 
DOCKED: ATOM      3  C   UNL d   1       4.659 -15.363   6.899 -0.20 -0.04    +0.194 C 
DOCKED: ATOM      4  C   UNL d   1       3.685 -14.437   6.175 -0.21 -0.05    +0.194 C 
DOCKED: ATOM      5  C   UNL d   1       2.316 -14.336   6.836 -0.23 -0.03    +0.194 C 
DOCKED: ATOM      6  C   UNL d   1       2.374 -14.151   8.354 -0.13 -0.02    +0.194 C 
DOCKED: ENDROOT
DOCKED: BRANCH   1   7
DOCKED: ATOM      7  O   UNL d   1       3.446 -14.728  10.404 -0.08 +0.04    -0.278 OA
DOCKED: BRANCH   7   8
DOCKED: ATOM      8  P   UNL d   1       4.069 -15.761  11.451 -0.01 -0.05    +0.473 P 
DOCKED: ATOM      9  O   UNL d   1       4.036 -15.317  12.871 -0.01 +0.03    -0.228 OA
DOCKED: BRANCH   8  10
DOCKED: ATOM     10  O   UNL d   1       3.254 -17.109  11.196 -0.00 +0.02    -0.303 OA
DOCKED: ATOM     11  H   UNL d   1       2.588 -16.961  10.499 +0.01 -0.02    +0.222 HD
DOCKED: ENDBRANCH   8  10
DOCKED: BRANCH   8  12
DOCKED: ATOM     12  O   UNL d   1       5.502 -16.124  10.870 -0.00 +0.03    -0.303 OA
DOCKED: ATOM     13  H   UNL d   1       5.866 -15.428  10.278 +0.03 -0.03    +0.222 HD
DOCKED: ENDBRANCH   8  12
DOCKED: ENDBRANCH   7   8
DOCKED: ENDBRANCH   1   7
DOCKED: BRANCH   2  14
DOCKED: ATOM     14  O   UNL d   1       5.316 -13.834   8.638 -0.16 +0.03    -0.278 OA
DOCKED: BRANCH  14  15
DOCKED: ATOM     15  P   UNL d   1       6.908 -13.810   8.812 -0.09 -0.10    +0.473 P 
DOCKED: ATOM     16  O   UNL d   1       7.439 -13.150  10.046 -0.08 +0.07    -0.228 OA
DOCKED: BRANCH  15  17
DOCKED: ATOM     17  O   UNL d   1       7.334 -15.340   8.698 -0.03 +0.05    -0.303 OA
DOCKED: ATOM     18  H   UNL d   1       7.435 -15.608   7.764 +0.05 -0.04    +0.222 HD
DOCKED: ENDBRANCH  15  17
DOCKED: BRANCH  15  19
DOCKED: ATOM     19  O   UNL d   1       7.448 -13.224   7.435 -0.14 +0.11    -0.303 OA
DOCKED: ATOM     20  H   UNL d   1       7.481 -13.908   6.741 -0.44 -0.11    +0.222 HD
DOCKED: ENDBRANCH  15  19
DOCKED: ENDBRANCH  14  15
DOCKED: ENDBRANCH   2  14
DOCKED: BRANCH   6  21
DOCKED: ATOM     21  O   UNL d   1       1.064 -14.417   8.852 -0.12 +0.05    -0.278 OA
DOCKED: BRANCH  21  22
DOCKED: ATOM     22  P   UNL d   1       0.651 -15.910   9.232 +0.01 -0.05    +0.473 P 
DOCKED: ATOM     23  O   UNL d   1       1.413 -17.032   8.613 -0.01 +0.02    -0.228 OA
DOCKED: BRANCH  22  24
DOCKED: ATOM     24  O   UNL d   1       0.701 -15.867  10.822 -0.00 +0.03    -0.303 OA
DOCKED: ATOM     25  H   UNL d   1       1.632 -15.667  11.096 +0.03 -0.02    +0.222 HD
DOCKED: ENDBRANCH  22  24
DOCKED: BRANCH  22  26
DOCKED: ATOM     26  O   UNL d   1      -0.927 -15.893   8.950 +0.00 +0.03    -0.303 OA
DOCKED: ATOM     27  H   UNL d   1      -1.081 -15.849   7.984 +0.03 -0.02    +0.222 HD
DOCKED: ENDBRANCH  22  26
DOCKED: ENDBRANCH  21  22
DOCKED: ENDBRANCH   6  21
DOCKED: BRANCH   3  28
DOCKED: ATOM     28  O   UNL d   1       5.940 -15.055   6.366 -0.20 +0.08    -0.278 OA
DOCKED: BRANCH  28  29
DOCKED: ATOM     29  P   UNL d   1       6.820 -16.191   5.679 -0.10 -0.08    +0.473 P 
DOCKED: ATOM     30  O   UNL d   1       8.209 -15.800   5.326 -0.19 +0.02    -0.228 OA
DOCKED: BRANCH  29  31
DOCKED: ATOM     31  O   UNL d   1       6.647 -17.365   6.753 -0.04 +0.03    -0.303 OA
DOCKED: ATOM     32  H   UNL d   1       7.077 -17.086   7.595 +0.03 -0.02    +0.222 HD
DOCKED: ENDBRANCH  29  31
DOCKED: BRANCH  29  33
DOCKED: ATOM     33  O   UNL d   1       5.880 -16.666   4.485 -0.18 +0.09    -0.303 OA
DOCKED: ATOM     34  H   UNL d   1       5.359 -15.892   4.159 -0.39 -0.10    +0.222 HD
DOCKED: ENDBRANCH  29  33
DOCKED: ENDBRANCH  28  29
DOCKED: ENDBRANCH   3  28
DOCKED: BRANCH   5  35
DOCKED: ATOM     35  O   UNL d   1       1.709 -13.166   6.293 -0.49 +0.03    -0.278 OA
DOCKED: BRANCH  35  36
DOCKED: ATOM     36  P   UNL d   1       0.136 -13.124   6.028 -0.12 -0.04    +0.473 P 
DOCKED: ATOM     37  O   UNL d   1      -0.604 -12.020   6.713 -0.52 +0.05    -0.228 OA
DOCKED: BRANCH  36  38
DOCKED: ATOM     38  O   UNL d   1       0.075 -13.065   4.438 -0.34 +0.04    -0.303 OA
DOCKED: ATOM     39  H   UNL d   1       0.978 -13.202   4.076 -0.16 -0.07    +0.222 HD
DOCKED: ENDBRANCH  36  38
DOCKED: BRANCH  36  40
DOCKED: ATOM     40  O   UNL d   1      -0.306 -14.612   6.373 -0.06 +0.04    -0.303 OA
DOCKED: ATOM     41  H   UNL d   1       0.011 -14.890   7.261 +0.06 -0.03    +0.222 HD
DOCKED: ENDBRANCH  36  40
DOCKED: ENDBRANCH  35  36
DOCKED: ENDBRANCH   5  35
DOCKED: BRANCH   4  42
DOCKED: ATOM     42  O   UNL d   1       3.482 -14.988   4.870 -0.28 +0.10    -0.278 OA
DOCKED: BRANCH  42  43
DOCKED: ATOM     43  P   UNL d   1       2.413 -16.157   4.683 -0.09 -0.10    +0.473 P 
DOCKED: ATOM     44  O   UNL d   1       2.043 -16.948   5.890 -0.03 +0.03    -0.228 OA
DOCKED: BRANCH  43  45
DOCKED: ATOM     45  O   UNL d   1       1.189 -15.405   3.998 -0.08 +0.06    -0.303 OA
DOCKED: ATOM     46  H   UNL d   1       0.872 -14.662   4.548 +0.07 -0.05    +0.222 HD
DOCKED: ENDBRANCH  43  45
DOCKED: BRANCH  43  47
DOCKED: ATOM     47  O   UNL d   1       3.004 -17.003   3.457 -0.10 +0.09    -0.303 OA
DOCKED: ATOM     48  H   UNL d   1       3.983 -16.950   3.471 -0.43 -0.13    +0.222 HD
DOCKED: ENDBRANCH  43  47
DOCKED: ENDBRANCH  42  43
DOCKED: ENDBRANCH   4  42
DOCKED: TORSDOF 24
DOCKED: TER
DOCKED: ENDMDL
________________________________________________________________________________


	BEGINNING GENETIC ALGORITHM DOCKING 78 of 100
Run: 78 Seed: 39095494 1852219320 [ Run 78 of 100 GA/GALS ]
Beginning LAMARCKIAN GENETIC ALGORITHM (LGA), with a maximum of 25000000 energy evaluations.

Final-Value: -18.671


	FINAL GENETIC ALGORITHM DOCKED STATE
	_______________________________________________


Detailed state:  trans -13.824 12.631 -10.615 quatxyzw 0.083495 0.629729 -0.659605 -0.401736 center 0.035 0.082 -0.065 ntor 24 58.2037 141.8597 101.4578 180.0000 32.4016 147.0164 -102.5801 -16.4291 -23.9394 91.7560 105.4119 120.0576 -45.3183 -142.3078 178.7497 -151.2916 -31.5111 95.9050 -29.2185 -1.2309 -14.1054 9.5654 -180.0000 -12.3712
State:	-13.824  12.631 -10.615   0.091  0.688 -0.720 -132.626     58.20  141.86  101.46  180.00   32.40  147.02 -102.58  -16.43  -23.94   91.76  105.41  120.06  -45.32 -142.31  178.75 -151.29  -31.51   95.90  -29.22   -1.23  -14.11    9.57 -180.00  -12.37

DOCKED: MODEL       78
DOCKED: USER    Run = 78
DOCKED: USER    DPF = D:/Protein_go_brrr/autodock/final/mut_D99N/IHP/dock.dpf
DOCKED: USER  
DOCKED: USER    Estimated Free Energy of Binding    =   +2.06 kcal/mol  [=(1)+(2)+(3)-(4)]
DOCKED: USER    
DOCKED: USER    (1) Final Intermolecular Energy     =   -5.10 kcal/mol
DOCKED: USER        vdW + Hbond + desolv Energy     =   -4.87 kcal/mol
DOCKED: USER        Electrostatic Energy            =   -0.23 kcal/mol
DOCKED: USER    (2) Final Total Internal Energy     =  -13.57 kcal/mol
DOCKED: USER    (3) Torsional Free Energy           =   +7.16 kcal/mol
DOCKED: USER    (4) Unbound System's Energy  [=(2)] =  -13.57 kcal/mol
DOCKED: USER    
DOCKED: USER    
DOCKED: USER    NEWDPF move IHP_ideal_opt.pdbqt
DOCKED: USER    NEWDPF about 0.035000 0.082000 -0.065000
DOCKED: USER    NEWDPF tran0 -13.824068 12.630718 -10.615063
DOCKED: USER    NEWDPF quaternion0 0.083495 0.629729 -0.659605 -0.401736
DOCKED: USER    NEWDPF axisangle0 0.091177 0.687660 -0.720285 -132.626501
DOCKED: USER    NEWDPF quat0 0.091177 0.687660 -0.720285 -132.626501
DOCKED: USER    NEWDPF dihe0 58.20 141.86 101.46 180.00 32.40 147.02 -102.58 -16.43 -23.94 91.76 105.41 120.06 -45.32 -142.31 178.75 -151.29 -31.51 95.90 -29.22 -1.23 -14.11 9.57 -180.00 -12.37 
DOCKED: USER  keepresnum = 1 
DOCKED: USER  
DOCKED: REMARK  24 active torsions:
DOCKED: REMARK  status: ('A' for Active; 'I' for Inactive)
DOCKED: REMARK    1  A    between atoms: C_1  and  O_7 
DOCKED: REMARK    2  A    between atoms: C_2  and  O_12 
DOCKED: REMARK    3  A    between atoms: C_3  and  O_17 
DOCKED: REMARK    4  A    between atoms: C_4  and  O_22 
DOCKED: REMARK    5  A    between atoms: C_5  and  O_27 
DOCKED: REMARK    6  A    between atoms: C_6  and  O_32 
DOCKED: REMARK    7  A    between atoms: O_7  and  P_8 
DOCKED: REMARK    8  A    between atoms: P_8  and  O_10 
DOCKED: REMARK    9  A    between atoms: P_8  and  O_11 
DOCKED: REMARK   10  A    between atoms: O_12  and  P_13 
DOCKED: REMARK   11  A    between atoms: P_13  and  O_15 
DOCKED: REMARK   12  A    between atoms: P_13  and  O_16 
DOCKED: REMARK   13  A    between atoms: O_17  and  P_18 
DOCKED: REMARK   14  A    between atoms: P_18  and  O_20 
DOCKED: REMARK   15  A    between atoms: P_18  and  O_21 
DOCKED: REMARK   16  A    between atoms: O_22  and  P_23 
DOCKED: REMARK   17  A    between atoms: P_23  and  O_25 
DOCKED: REMARK   18  A    between atoms: P_23  and  O_26 
DOCKED: REMARK   19  A    between atoms: O_27  and  P_28 
DOCKED: REMARK   20  A    between atoms: P_28  and  O_30 
DOCKED: REMARK   21  A    between atoms: P_28  and  O_31 
DOCKED: REMARK   22  A    between atoms: O_32  and  P_33 
DOCKED: REMARK   23  A    between atoms: P_33  and  O_35 
DOCKED: REMARK   24  A    between atoms: P_33  and  O_36 
DOCKED: USER                              x       y       z     vdW  Elec       q    Type
DOCKED: USER                           _______ _______ _______ _____ _____    ______ ____
DOCKED: ROOT
DOCKED: ATOM      1  C   UNL d   1     -14.906  11.285 -10.556 +0.07 -0.11    +0.194 C 
DOCKED: ATOM      2  C   UNL d   1     -14.735  12.054  -9.245 -0.12 -0.08    +0.194 C 
DOCKED: ATOM      3  C   UNL d   1     -13.269  12.405  -8.981 -0.22 -0.05    +0.194 C 
DOCKED: ATOM      4  C   UNL d   1     -12.599  13.112 -10.156 -0.20 -0.05    +0.194 C 
DOCKED: ATOM      5  C   UNL d   1     -12.840  12.443 -11.503 -0.17 -0.08    +0.194 C 
DOCKED: ATOM      6  C   UNL d   1     -14.296  12.036 -11.741 -0.18 -0.09    +0.194 C 
DOCKED: ENDROOT
DOCKED: BRANCH   1   7
DOCKED: ATOM      7  O   UNL d   1     -16.306  11.149 -10.814 -0.10 +0.17    -0.278 OA
DOCKED: BRANCH   7   8
DOCKED: ATOM      8  P   UNL d   1     -16.802   9.887 -11.658 -0.08 -0.37    +0.473 P 
DOCKED: ATOM      9  O   UNL d   1     -15.749   8.885 -11.975 -0.21 +0.22    -0.228 OA
DOCKED: BRANCH   8  10
DOCKED: ATOM     10  O   UNL d   1     -17.999   9.287 -10.790 -0.10 +0.37    -0.303 OA
DOCKED: ATOM     11  H   UNL d   1     -17.678   8.525 -10.273 -0.40 -0.54    +0.222 HD
DOCKED: ENDBRANCH   8  10
DOCKED: BRANCH   8  12
DOCKED: ATOM     12  O   UNL d   1     -17.572  10.502 -12.905 -0.02 +0.14    -0.303 OA
DOCKED: ATOM     13  H   UNL d   1     -17.012  10.565 -13.711 +0.04 -0.10    +0.222 HD
DOCKED: ENDBRANCH   8  12
DOCKED: ENDBRANCH   7   8
DOCKED: ENDBRANCH   1   7
DOCKED: BRANCH   2  14
DOCKED: ATOM     14  O   UNL d   1     -15.490  13.270  -9.314 -0.05 +0.08    -0.278 OA
DOCKED: BRANCH  14  15
DOCKED: ATOM     15  P   UNL d   1     -16.457  13.583  -8.076 -0.06 -0.11    +0.473 P 
DOCKED: ATOM     16  O   UNL d   1     -17.835  13.000  -8.136 -0.08 +0.06    -0.228 OA
DOCKED: BRANCH  15  17
DOCKED: ATOM     17  O   UNL d   1     -15.633  13.090  -6.806 -0.20 +0.07    -0.303 OA
DOCKED: ATOM     18  H   UNL d   1     -14.732  12.811  -7.058 +0.09 -0.05    +0.222 HD
DOCKED: ENDBRANCH  15  17
DOCKED: BRANCH  15  19
DOCKED: ATOM     19  O   UNL d   1     -16.389  15.163  -7.909 -0.02 +0.04    -0.303 OA
DOCKED: ATOM     20  H   UNL d   1     -17.266  15.575  -8.011 +0.02 -0.03    +0.222 HD
DOCKED: ENDBRANCH  15  19
DOCKED: ENDBRANCH  14  15
DOCKED: ENDBRANCH   2  14
DOCKED: BRANCH   6  21
DOCKED: ATOM     21  O   UNL d   1     -14.297  11.140 -12.850 -0.23 +0.19    -0.278 OA
DOCKED: BRANCH  21  22
DOCKED: ATOM     22  P   UNL d   1     -15.053  11.546 -14.195 -0.12 -0.32    +0.473 P 
DOCKED: ATOM     23  O   UNL d   1     -15.609  10.456 -15.047 -0.12 +0.19    -0.228 OA
DOCKED: BRANCH  22  24
DOCKED: ATOM     24  O   UNL d   1     -16.128  12.592 -13.662 -0.01 +0.11    -0.303 OA
DOCKED: ATOM     25  H   UNL d   1     -16.409  12.309 -12.754 +0.04 -0.08    +0.222 HD
DOCKED: ENDBRANCH  22  24
DOCKED: BRANCH  22  26
DOCKED: ATOM     26  O   UNL d   1     -13.976  12.506 -14.895 -0.14 +0.23    -0.303 OA
DOCKED: ATOM     27  H   UNL d   1     -13.417  12.919 -14.206 +0.05 -0.14    +0.222 HD
DOCKED: ENDBRANCH  22  26
DOCKED: ENDBRANCH  21  22
DOCKED: ENDBRANCH   6  21
DOCKED: BRANCH   3  28
DOCKED: ATOM     28  O   UNL d   1     -13.239  13.340  -7.910 -0.14 +0.05    -0.278 OA
DOCKED: BRANCH  28  29
DOCKED: ATOM     29  P   UNL d   1     -12.458  12.997  -6.565 -0.25 -0.04    +0.473 P 
DOCKED: ATOM     30  O   UNL d   1     -12.548  14.022  -5.493 -0.26 +0.01    -0.228 OA
DOCKED: BRANCH  29  31
DOCKED: ATOM     31  O   UNL d   1     -13.073  11.555  -6.244 -0.82 +0.07    -0.303 OA
DOCKED: ATOM     32  H   UNL d   1     -14.056  11.618  -6.279 -0.33 -0.07    +0.222 HD
DOCKED: ENDBRANCH  29  31
DOCKED: BRANCH  29  33
DOCKED: ATOM     33  O   UNL d   1     -11.002  12.647  -7.104 -0.10 +0.02    -0.303 OA
DOCKED: ATOM     34  H   UNL d   1     -10.750  13.303  -7.799 +0.11 -0.01    +0.222 HD
DOCKED: ENDBRANCH  29  33
DOCKED: ENDBRANCH  28  29
DOCKED: ENDBRANCH   3  28
DOCKED: BRANCH   5  35
DOCKED: ATOM     35  O   UNL d   1     -12.512  13.422 -12.486 -0.12 +0.13    -0.278 OA
DOCKED: BRANCH  35  36
DOCKED: ATOM     36  P   UNL d   1     -13.110  14.897 -12.384 -0.02 -0.11    +0.473 P 
DOCKED: ATOM     37  O   UNL d   1     -13.754  15.243 -11.079 -0.02 +0.04    -0.228 OA
DOCKED: BRANCH  36  38
DOCKED: ATOM     38  O   UNL d   1     -11.841  15.790 -12.744 -0.01 +0.05    -0.303 OA
DOCKED: ATOM     39  H   UNL d   1     -11.390  16.055 -11.914 +0.02 -0.03    +0.222 HD
DOCKED: ENDBRANCH  36  38
DOCKED: BRANCH  36  40
DOCKED: ATOM     40  O   UNL d   1     -14.022  14.985 -13.684 -0.01 +0.08    -0.303 OA
DOCKED: ATOM     41  H   UNL d   1     -14.624  14.212 -13.760 +0.03 -0.07    +0.222 HD
DOCKED: ENDBRANCH  36  40
DOCKED: ENDBRANCH  35  36
DOCKED: ENDBRANCH   5  35
DOCKED: BRANCH   4  42
DOCKED: ATOM     42  O   UNL d   1     -11.189  13.075  -9.913 -0.21 +0.05    -0.278 OA
DOCKED: BRANCH  42  43
DOCKED: ATOM     43  P   UNL d   1     -10.376  14.447  -9.871 -0.07 -0.05    +0.473 P 
DOCKED: ATOM     44  O   UNL d   1      -9.289  14.571  -8.861 -0.10 +0.01    -0.228 OA
DOCKED: BRANCH  43  45
DOCKED: ATOM     45  O   UNL d   1      -9.887  14.609 -11.377 -0.07 +0.05    -0.303 OA
DOCKED: ATOM     46  H   UNL d   1     -10.533  14.229 -12.006 +0.03 -0.06    +0.222 HD
DOCKED: ENDBRANCH  43  45
DOCKED: BRANCH  43  47
DOCKED: ATOM     47  O   UNL d   1     -11.532  15.554  -9.783 -0.02 +0.03    -0.303 OA
DOCKED: ATOM     48  H   UNL d   1     -12.100  15.492 -10.579 +0.03 -0.03    +0.222 HD
DOCKED: ENDBRANCH  43  47
DOCKED: ENDBRANCH  42  43
DOCKED: ENDBRANCH   4  42
DOCKED: TORSDOF 24
DOCKED: TER
DOCKED: ENDMDL
________________________________________________________________________________


	BEGINNING GENETIC ALGORITHM DOCKING 79 of 100
Run: 79 Seed: 622847946 1363476893 [ Run 79 of 100 GA/GALS ]
Beginning LAMARCKIAN GENETIC ALGORITHM (LGA), with a maximum of 25000000 energy evaluations.

Final-Value: -18.924


	FINAL GENETIC ALGORITHM DOCKED STATE
	_______________________________________________


Detailed state:  trans 8.511 12.277 9.592 quatxyzw 0.567471 -0.571703 0.096211 -0.584701 center 0.035 0.082 -0.065 ntor 24 139.2285 35.4319 168.7049 11.5293 -20.5366 122.3465 1.2889 -153.6953 1.6018 76.9110 112.8400 104.9038 -38.5129 85.2888 -165.6891 149.3473 -63.2116 85.3479 18.8211 -44.9117 -48.3135 -51.0791 5.8007 -40.1906
State:	  8.511  12.277   9.592   0.700 -0.705  0.119 -108.436    139.23   35.43  168.70   11.53  -20.54  122.35    1.29 -153.70    1.60   76.91  112.84  104.90  -38.51   85.29 -165.69  149.35  -63.21   85.35   18.82  -44.91  -48.31  -51.08    5.80  -40.19

DOCKED: MODEL       79
DOCKED: USER    Run = 79
DOCKED: USER    DPF = D:/Protein_go_brrr/autodock/final/mut_D99N/IHP/dock.dpf
DOCKED: USER  
DOCKED: USER    Estimated Free Energy of Binding    =   +3.35 kcal/mol  [=(1)+(2)+(3)-(4)]
DOCKED: USER    
DOCKED: USER    (1) Final Intermolecular Energy     =   -3.81 kcal/mol
DOCKED: USER        vdW + Hbond + desolv Energy     =   -3.79 kcal/mol
DOCKED: USER        Electrostatic Energy            =   -0.02 kcal/mol
DOCKED: USER    (2) Final Total Internal Energy     =  -15.11 kcal/mol
DOCKED: USER    (3) Torsional Free Energy           =   +7.16 kcal/mol
DOCKED: USER    (4) Unbound System's Energy  [=(2)] =  -15.11 kcal/mol
DOCKED: USER    
DOCKED: USER    
DOCKED: USER    NEWDPF move IHP_ideal_opt.pdbqt
DOCKED: USER    NEWDPF about 0.035000 0.082000 -0.065000
DOCKED: USER    NEWDPF tran0 8.510590 12.276927 9.592155
DOCKED: USER    NEWDPF quaternion0 0.567471 -0.571703 0.096211 -0.584701
DOCKED: USER    NEWDPF axisangle0 0.699503 -0.704720 0.118596 -108.436246
DOCKED: USER    NEWDPF quat0 0.699503 -0.704720 0.118596 -108.436246
DOCKED: USER    NEWDPF dihe0 139.23 35.43 168.70 11.53 -20.54 122.35 1.29 -153.70 1.60 76.91 112.84 104.90 -38.51 85.29 -165.69 149.35 -63.21 85.35 18.82 -44.91 -48.31 -51.08 5.80 -40.19 
DOCKED: USER  keepresnum = 1 
DOCKED: USER  
DOCKED: REMARK  24 active torsions:
DOCKED: REMARK  status: ('A' for Active; 'I' for Inactive)
DOCKED: REMARK    1  A    between atoms: C_1  and  O_7 
DOCKED: REMARK    2  A    between atoms: C_2  and  O_12 
DOCKED: REMARK    3  A    between atoms: C_3  and  O_17 
DOCKED: REMARK    4  A    between atoms: C_4  and  O_22 
DOCKED: REMARK    5  A    between atoms: C_5  and  O_27 
DOCKED: REMARK    6  A    between atoms: C_6  and  O_32 
DOCKED: REMARK    7  A    between atoms: O_7  and  P_8 
DOCKED: REMARK    8  A    between atoms: P_8  and  O_10 
DOCKED: REMARK    9  A    between atoms: P_8  and  O_11 
DOCKED: REMARK   10  A    between atoms: O_12  and  P_13 
DOCKED: REMARK   11  A    between atoms: P_13  and  O_15 
DOCKED: REMARK   12  A    between atoms: P_13  and  O_16 
DOCKED: REMARK   13  A    between atoms: O_17  and  P_18 
DOCKED: REMARK   14  A    between atoms: P_18  and  O_20 
DOCKED: REMARK   15  A    between atoms: P_18  and  O_21 
DOCKED: REMARK   16  A    between atoms: O_22  and  P_23 
DOCKED: REMARK   17  A    between atoms: P_23  and  O_25 
DOCKED: REMARK   18  A    between atoms: P_23  and  O_26 
DOCKED: REMARK   19  A    between atoms: O_27  and  P_28 
DOCKED: REMARK   20  A    between atoms: P_28  and  O_30 
DOCKED: REMARK   21  A    between atoms: P_28  and  O_31 
DOCKED: REMARK   22  A    between atoms: O_32  and  P_33 
DOCKED: REMARK   23  A    between atoms: P_33  and  O_35 
DOCKED: REMARK   24  A    between atoms: P_33  and  O_36 
DOCKED: USER                              x       y       z     vdW  Elec       q    Type
DOCKED: USER                           _______ _______ _______ _____ _____    ______ ____
DOCKED: ROOT
DOCKED: ATOM      1  C   UNL d   1       9.155  10.693   9.840 -0.15 +0.00    +0.194 C 
DOCKED: ATOM      2  C   UNL d   1       9.564  11.377   8.534 -0.13 +0.00    +0.194 C 
DOCKED: ATOM      3  C   UNL d   1       8.381  12.081   7.867 -0.22 -0.00    +0.194 C 
DOCKED: ATOM      4  C   UNL d   1       7.638  13.028   8.806 -0.25 -0.02    +0.194 C 
DOCKED: ATOM      5  C   UNL d   1       7.310  12.424  10.166 -0.22 -0.02    +0.194 C 
DOCKED: ATOM      6  C   UNL d   1       8.477  11.667  10.804 -0.14 -0.00    +0.194 C 
DOCKED: ENDROOT
DOCKED: BRANCH   1   7
DOCKED: ATOM      7  O   UNL d   1      10.338  10.212  10.481 -0.03 -0.01    -0.278 OA
DOCKED: BRANCH   7   8
DOCKED: ATOM      8  P   UNL d   1      10.658   8.649  10.412 -0.02 +0.05    +0.473 P 
DOCKED: ATOM      9  O   UNL d   1       9.849   7.883   9.425 -0.10 -0.05    -0.228 OA
DOCKED: BRANCH   8  10
DOCKED: ATOM     10  O   UNL d   1      12.225   8.587  10.121 -0.00 -0.03    -0.303 OA
DOCKED: ATOM     11  H   UNL d   1      12.527   9.446   9.773 +0.01 +0.01    +0.222 HD
DOCKED: ENDBRANCH   8  10
DOCKED: BRANCH   8  12
DOCKED: ATOM     12  O   UNL d   1      10.578   8.143  11.916 -0.02 -0.02    -0.303 OA
DOCKED: ATOM     13  H   UNL d   1      10.511   8.878  12.566 +0.03 +0.01    +0.222 HD
DOCKED: ENDBRANCH   8  12
DOCKED: ENDBRANCH   7   8
DOCKED: ENDBRANCH   1   7
DOCKED: BRANCH   2  14
DOCKED: ATOM     14  O   UNL d   1      10.576  12.352   8.814 -0.02 -0.00    -0.278 OA
DOCKED: BRANCH  14  15
DOCKED: ATOM     15  P   UNL d   1      12.089  11.828   8.834 -0.00 +0.01    +0.473 P 
DOCKED: ATOM     16  O   UNL d   1      13.121  12.733   8.236 -0.00 -0.00    -0.228 OA
DOCKED: BRANCH  15  17
DOCKED: ATOM     17  O   UNL d   1      12.367  11.503  10.368 -0.00 -0.00    -0.303 OA
DOCKED: ATOM     18  H   UNL d   1      11.899  10.692  10.646 +0.01 +0.00    +0.222 HD
DOCKED: ENDBRANCH  15  17
DOCKED: BRANCH  15  19
DOCKED: ATOM     19  O   UNL d   1      12.012  10.368   8.207 -0.01 -0.01    -0.303 OA
DOCKED: ATOM     20  H   UNL d   1      11.300   9.839   8.612 +0.03 +0.01    +0.222 HD
DOCKED: ENDBRANCH  15  19
DOCKED: ENDBRANCH  14  15
DOCKED: ENDBRANCH   2  14
DOCKED: BRANCH   6  21
DOCKED: ATOM     21  O   UNL d   1       7.931  10.890  11.868 -0.09 +0.00    -0.278 OA
DOCKED: BRANCH  21  22
DOCKED: ATOM     22  P   UNL d   1       8.829  10.549  13.141 -0.08 -0.00    +0.473 P 
DOCKED: ATOM     23  O   UNL d   1       8.803   9.154  13.670 -0.12 +0.00    -0.228 OA
DOCKED: BRANCH  22  24
DOCKED: ATOM     24  O   UNL d   1      10.263  11.059  12.675 -0.02 +0.00    -0.303 OA
DOCKED: ATOM     25  H   UNL d   1      10.705  10.324  12.178 +0.02 +0.00    +0.222 HD
DOCKED: ENDBRANCH  22  24
DOCKED: BRANCH  22  26
DOCKED: ATOM     26  O   UNL d   1       8.387  11.698  14.168 -0.09 +0.00    -0.303 OA
DOCKED: ATOM     27  H   UNL d   1       8.462  12.569  13.728 +0.03 -0.00    +0.222 HD
DOCKED: ENDBRANCH  22  26
DOCKED: ENDBRANCH  21  22
DOCKED: ENDBRANCH   6  21
DOCKED: BRANCH   3  28
DOCKED: ATOM     28  O   UNL d   1       8.900  12.906   6.833 -0.15 +0.01    -0.278 OA
DOCKED: BRANCH  28  29
DOCKED: ATOM     29  P   UNL d   1       9.738  12.267   5.638 -0.07 +0.00    +0.473 P 
DOCKED: ATOM     30  O   UNL d   1       9.217  12.538   4.274 -0.13 -0.00    -0.228 OA
DOCKED: BRANCH  29  31
DOCKED: ATOM     31  O   UNL d   1      11.194  12.832   5.985 -0.02 -0.00    -0.303 OA
DOCKED: ATOM     32  H   UNL d   1      11.405  12.605   6.920 +0.02 +0.00    +0.222 HD
DOCKED: ENDBRANCH  29  31
DOCKED: BRANCH  29  33
DOCKED: ATOM     33  O   UNL d   1       9.838  10.741   6.080 -0.11 -0.01    -0.303 OA
DOCKED: ATOM     34  H   UNL d   1      10.689  10.601   6.564 +0.03 +0.01    +0.222 HD
DOCKED: ENDBRANCH  29  33
DOCKED: ENDBRANCH  28  29
DOCKED: ENDBRANCH   3  28
DOCKED: BRANCH   5  35
DOCKED: ATOM     35  O   UNL d   1       7.009  13.527  11.018 -0.11 +0.03    -0.278 OA
DOCKED: BRANCH  35  36
DOCKED: ATOM     36  P   UNL d   1       5.761  13.462  12.008 -0.13 -0.05    +0.473 P 
DOCKED: ATOM     37  O   UNL d   1       4.729  12.431  11.678 -0.23 +0.05    -0.228 OA
DOCKED: BRANCH  36  38
DOCKED: ATOM     38  O   UNL d   1       6.473  13.249  13.417 -0.10 +0.01    -0.303 OA
DOCKED: ATOM     39  H   UNL d   1       6.879  12.356  13.439 +0.06 -0.00    +0.222 HD
DOCKED: ENDBRANCH  36  38
DOCKED: BRANCH  36  40
DOCKED: ATOM     40  O   UNL d   1       5.279  14.977  12.048 -0.05 +0.03    -0.303 OA
DOCKED: ATOM     41  H   UNL d   1       5.397  15.420  11.178 +0.06 -0.02    +0.222 HD
DOCKED: ENDBRANCH  36  40
DOCKED: ENDBRANCH  35  36
DOCKED: ENDBRANCH   5  35
DOCKED: BRANCH   4  42
DOCKED: ATOM     42  O   UNL d   1       6.392  13.345   8.176 -0.27 +0.08    -0.278 OA
DOCKED: BRANCH  42  43
DOCKED: ATOM     43  P   UNL d   1       5.709  14.753   8.484 -0.19 -0.08    +0.473 P 
DOCKED: ATOM     44  O   UNL d   1       5.248  15.562   7.321 -0.25 +0.03    -0.228 OA
DOCKED: BRANCH  43  45
DOCKED: ATOM     45  O   UNL d   1       4.552  14.363   9.504 -0.18 +0.08    -0.303 OA
DOCKED: ATOM     46  H   UNL d   1       4.851  13.685  10.142 -0.36 -0.10    +0.222 HD
DOCKED: ENDBRANCH  43  45
DOCKED: BRANCH  43  47
DOCKED: ATOM     47  O   UNL d   1       6.767  15.471   9.450 -0.06 +0.02    -0.303 OA
DOCKED: ATOM     48  H   UNL d   1       6.701  15.082  10.346 +0.05 -0.02    +0.222 HD
DOCKED: ENDBRANCH  43  47
DOCKED: ENDBRANCH  42  43
DOCKED: ENDBRANCH   4  42
DOCKED: TORSDOF 24
DOCKED: TER
DOCKED: ENDMDL
________________________________________________________________________________


	BEGINNING GENETIC ALGORITHM DOCKING 80 of 100
Run: 80 Seed: 1751753542 984583992 [ Run 80 of 100 GA/GALS ]
Beginning LAMARCKIAN GENETIC ALGORITHM (LGA), with a maximum of 25000000 energy evaluations.

Final-Value: -18.865


	FINAL GENETIC ALGORITHM DOCKED STATE
	_______________________________________________


Detailed state:  trans 2.830 -11.821 -19.122 quatxyzw 0.109722 -0.654359 0.007828 -0.748141 center 0.035 0.082 -0.065 ntor 24 175.7601 -119.6244 141.4189 11.8880 145.3542 -179.8652 -12.3613 -153.7556 53.0840 116.6458 165.5640 107.3393 -101.1477 -180.0000 174.8337 120.0584 -79.1764 156.3285 51.7988 8.5739 26.8983 -7.6802 180.0000 -165.7187
State:	  2.830 -11.821 -19.122   0.165 -0.986  0.012 -83.141    175.76 -119.62  141.42   11.89  145.35 -179.87  -12.36 -153.76   53.08  116.65  165.56  107.34 -101.15 -180.00  174.83  120.06  -79.18  156.33   51.80    8.57   26.90   -7.68  180.00 -165.72

DOCKED: MODEL       80
DOCKED: USER    Run = 80
DOCKED: USER    DPF = D:/Protein_go_brrr/autodock/final/mut_D99N/IHP/dock.dpf
DOCKED: USER  
DOCKED: USER    Estimated Free Energy of Binding    =   +0.07 kcal/mol  [=(1)+(2)+(3)-(4)]
DOCKED: USER    
DOCKED: USER    (1) Final Intermolecular Energy     =   -7.09 kcal/mol
DOCKED: USER        vdW + Hbond + desolv Energy     =   -6.18 kcal/mol
DOCKED: USER        Electrostatic Energy            =   -0.92 kcal/mol
DOCKED: USER    (2) Final Total Internal Energy     =  -11.77 kcal/mol
DOCKED: USER    (3) Torsional Free Energy           =   +7.16 kcal/mol
DOCKED: USER    (4) Unbound System's Energy  [=(2)] =  -11.77 kcal/mol
DOCKED: USER    
DOCKED: USER    
DOCKED: USER    NEWDPF move IHP_ideal_opt.pdbqt
DOCKED: USER    NEWDPF about 0.035000 0.082000 -0.065000
DOCKED: USER    NEWDPF tran0 2.829974 -11.820867 -19.121652
DOCKED: USER    NEWDPF quaternion0 0.109722 -0.654359 0.007828 -0.748141
DOCKED: USER    NEWDPF axisangle0 0.165358 -0.986163 0.011797 -83.140815
DOCKED: USER    NEWDPF quat0 0.165358 -0.986163 0.011797 -83.140815
DOCKED: USER    NEWDPF dihe0 175.76 -119.62 141.42 11.89 145.35 -179.87 -12.36 -153.76 53.08 116.65 165.56 107.34 -101.15 -180.00 174.83 120.06 -79.18 156.33 51.80 8.57 26.90 -7.68 180.00 -165.72 
DOCKED: USER  keepresnum = 1 
DOCKED: USER  
DOCKED: REMARK  24 active torsions:
DOCKED: REMARK  status: ('A' for Active; 'I' for Inactive)
DOCKED: REMARK    1  A    between atoms: C_1  and  O_7 
DOCKED: REMARK    2  A    between atoms: C_2  and  O_12 
DOCKED: REMARK    3  A    between atoms: C_3  and  O_17 
DOCKED: REMARK    4  A    between atoms: C_4  and  O_22 
DOCKED: REMARK    5  A    between atoms: C_5  and  O_27 
DOCKED: REMARK    6  A    between atoms: C_6  and  O_32 
DOCKED: REMARK    7  A    between atoms: O_7  and  P_8 
DOCKED: REMARK    8  A    between atoms: P_8  and  O_10 
DOCKED: REMARK    9  A    between atoms: P_8  and  O_11 
DOCKED: REMARK   10  A    between atoms: O_12  and  P_13 
DOCKED: REMARK   11  A    between atoms: P_13  and  O_15 
DOCKED: REMARK   12  A    between atoms: P_13  and  O_16 
DOCKED: REMARK   13  A    between atoms: O_17  and  P_18 
DOCKED: REMARK   14  A    between atoms: P_18  and  O_20 
DOCKED: REMARK   15  A    between atoms: P_18  and  O_21 
DOCKED: REMARK   16  A    between atoms: O_22  and  P_23 
DOCKED: REMARK   17  A    between atoms: P_23  and  O_25 
DOCKED: REMARK   18  A    between atoms: P_23  and  O_26 
DOCKED: REMARK   19  A    between atoms: O_27  and  P_28 
DOCKED: REMARK   20  A    between atoms: P_28  and  O_30 
DOCKED: REMARK   21  A    between atoms: P_28  and  O_31 
DOCKED: REMARK   22  A    between atoms: O_32  and  P_33 
DOCKED: REMARK   23  A    between atoms: P_33  and  O_35 
DOCKED: REMARK   24  A    between atoms: P_33  and  O_36 
DOCKED: USER                              x       y       z     vdW  Elec       q    Type
DOCKED: USER                           _______ _______ _______ _____ _____    ______ ____
DOCKED: ROOT
DOCKED: ATOM      1  C   UNL d   1       2.375 -12.991 -17.935 -0.15 +0.01    +0.194 C 
DOCKED: ATOM      2  C   UNL d   1       2.681 -13.546 -19.327 -0.04 -0.01    +0.194 C 
DOCKED: ATOM      3  C   UNL d   1       2.068 -12.681 -20.430 -0.02 -0.03    +0.194 C 
DOCKED: ATOM      4  C   UNL d   1       2.431 -11.203 -20.306 -0.05 -0.05    +0.194 C 
DOCKED: ATOM      5  C   UNL d   1       2.249 -10.635 -18.904 -0.08 -0.12    +0.194 C 
DOCKED: ATOM      6  C   UNL d   1       2.807 -11.530 -17.796 -0.18 -0.05    +0.194 C 
DOCKED: ENDROOT
DOCKED: BRANCH   1   7
DOCKED: ATOM      7  O   UNL d   1       3.119 -13.749 -16.978 -0.39 -0.20    -0.278 OA
DOCKED: BRANCH   7   8
DOCKED: ATOM      8  P   UNL d   1       2.678 -15.258 -16.697 +0.07 +0.35    +0.473 P 
DOCKED: ATOM      9  O   UNL d   1       1.228 -15.451 -16.424 -0.42 -0.18    -0.228 OA
DOCKED: BRANCH   8  10
DOCKED: ATOM     10  O   UNL d   1       3.187 -16.056 -17.981 -0.02 -0.05    -0.303 OA
DOCKED: ATOM     11  H   UNL d   1       3.857 -15.525 -18.451 +0.04 +0.03    +0.222 HD
DOCKED: ENDBRANCH   8  10
DOCKED: BRANCH   8  12
DOCKED: ATOM     12  O   UNL d   1       3.671 -15.775 -15.569 -0.21 -0.19    -0.303 OA
DOCKED: ATOM     13  H   UNL d   1       3.666 -16.753 -15.470 +0.04 +0.08    +0.222 HD
DOCKED: ENDBRANCH   8  12
DOCKED: ENDBRANCH   7   8
DOCKED: ENDBRANCH   1   7
DOCKED: BRANCH   2  14
DOCKED: ATOM     14  O   UNL d   1       4.102 -13.584 -19.512 -0.03 +0.00    -0.278 OA
DOCKED: BRANCH  14  15
DOCKED: ATOM     15  P   UNL d   1       4.691 -14.866 -20.270 -0.02 -0.00    +0.473 P 
DOCKED: ATOM     16  O   UNL d   1       5.750 -15.642 -19.553 -0.08 -0.00    -0.228 OA
DOCKED: BRANCH  15  17
DOCKED: ATOM     17  O   UNL d   1       3.404 -15.743 -20.606 -0.00 -0.00    -0.303 OA
DOCKED: ATOM     18  H   UNL d   1       2.688 -15.190 -20.973 +0.01 -0.00    +0.222 HD
DOCKED: ENDBRANCH  15  17
DOCKED: BRANCH  15  19
DOCKED: ATOM     19  O   UNL d   1       5.094 -14.325 -21.710 -0.01 +0.01    -0.303 OA
DOCKED: ATOM     20  H   UNL d   1       4.379 -13.794 -22.109 +0.01 -0.01    +0.222 HD
DOCKED: ENDBRANCH  15  19
DOCKED: ENDBRANCH  14  15
DOCKED: ENDBRANCH   2  14
DOCKED: BRANCH   6  21
DOCKED: ATOM     21  O   UNL d   1       2.268 -11.050 -16.566 -0.52 +0.08    -0.278 OA
DOCKED: BRANCH  21  22
DOCKED: ATOM     22  P   UNL d   1       2.845  -9.711 -15.919 -0.33 -0.11    +0.473 P 
DOCKED: ATOM     23  O   UNL d   1       2.710  -9.526 -14.445 -0.51 -0.03    -0.228 OA
DOCKED: BRANCH  22  24
DOCKED: ATOM     24  O   UNL d   1       4.343  -9.708 -16.457 -0.44 +0.05    -0.303 OA
DOCKED: ATOM     25  H   UNL d   1       4.333  -9.381 -17.393 -0.17 -0.07    +0.222 HD
DOCKED: ENDBRANCH  22  24
DOCKED: BRANCH  22  26
DOCKED: ATOM     26  O   UNL d   1       2.162  -8.586 -16.834 -0.33 +0.24    -0.303 OA
DOCKED: ATOM     27  H   UNL d   1       1.528  -9.011 -17.446 -0.41 -0.37    +0.222 HD
DOCKED: ENDBRANCH  22  26
DOCKED: ENDBRANCH  21  22
DOCKED: ENDBRANCH   6  21
DOCKED: BRANCH   3  28
DOCKED: ATOM     28  O   UNL d   1       2.628 -13.104 -21.667 +0.00 +0.02    -0.278 OA
DOCKED: BRANCH  28  29
DOCKED: ATOM     29  P   UNL d   1       1.784 -14.019 -22.660 +0.01 -0.02    +0.473 P 
DOCKED: ATOM     30  O   UNL d   1       1.031 -13.294 -23.716 +0.00 +0.01    -0.228 OA
DOCKED: BRANCH  29  31
DOCKED: ATOM     31  O   UNL d   1       2.926 -15.029 -23.146 -0.00 +0.01    -0.303 OA
DOCKED: ATOM     32  H   UNL d   1       3.499 -15.250 -22.376 +0.00 -0.00    +0.222 HD
DOCKED: ENDBRANCH  29  31
DOCKED: BRANCH  29  33
DOCKED: ATOM     33  O   UNL d   1       0.933 -14.910 -21.652 +0.00 +0.02    -0.303 OA
DOCKED: ATOM     34  H   UNL d   1       1.408 -15.763 -21.496 +0.00 -0.01    +0.222 HD
DOCKED: ENDBRANCH  29  33
DOCKED: ENDBRANCH  28  29
DOCKED: ENDBRANCH   3  28
DOCKED: BRANCH   5  35
DOCKED: ATOM     35  O   UNL d   1       2.996  -9.420 -18.878 -0.16 +0.11    -0.278 OA
DOCKED: BRANCH  35  36
DOCKED: ATOM     36  P   UNL d   1       4.505  -9.393 -19.394 -0.15 -0.12    +0.473 P 
DOCKED: ATOM     37  O   UNL d   1       5.302 -10.630 -19.123 -0.18 +0.07    -0.228 OA
DOCKED: BRANCH  36  38
DOCKED: ATOM     38  O   UNL d   1       4.316  -9.062 -20.940 -0.13 +0.04    -0.303 OA
DOCKED: ATOM     39  H   UNL d   1       3.384  -9.237 -21.194 +0.06 -0.03    +0.222 HD
DOCKED: ENDBRANCH  36  38
DOCKED: BRANCH  36  40
DOCKED: ATOM     40  O   UNL d   1       5.052  -8.034 -18.775 -0.32 +0.08    -0.303 OA
DOCKED: ATOM     41  H   UNL d   1       5.221  -8.115 -17.810 -0.34 -0.06    +0.222 HD
DOCKED: ENDBRANCH  36  40
DOCKED: ENDBRANCH  35  36
DOCKED: ENDBRANCH   5  35
DOCKED: BRANCH   4  42
DOCKED: ATOM     42  O   UNL d   1       1.543 -10.484 -21.169 -0.03 +0.06    -0.278 OA
DOCKED: BRANCH  42  43
DOCKED: ATOM     43  P   UNL d   1       0.088 -10.106 -20.637 -0.08 -0.19    +0.473 P 
DOCKED: ATOM     44  O   UNL d   1      -0.965  -9.830 -21.654 -0.08 +0.04    -0.228 OA
DOCKED: BRANCH  43  45
DOCKED: ATOM     45  O   UNL d   1      -0.252 -11.314 -19.659 -0.10 +0.24    -0.303 OA
DOCKED: ATOM     46  H   UNL d   1       0.009 -11.114 -18.738 +0.05 -0.42    +0.222 HD
DOCKED: ENDBRANCH  43  45
DOCKED: BRANCH  43  47
DOCKED: ATOM     47  O   UNL d   1       0.375  -8.918 -19.599 -0.17 +0.22    -0.303 OA
DOCKED: ATOM     48  H   UNL d   1       0.772  -9.290 -18.785 -0.35 -0.33    +0.222 HD
DOCKED: ENDBRANCH  43  47
DOCKED: ENDBRANCH  42  43
DOCKED: ENDBRANCH   4  42
DOCKED: TORSDOF 24
DOCKED: TER
DOCKED: ENDMDL
________________________________________________________________________________


	BEGINNING GENETIC ALGORITHM DOCKING 81 of 100
Run: 81 Seed: 1751788953 1049366737 [ Run 81 of 100 GA/GALS ]
Beginning LAMARCKIAN GENETIC ALGORITHM (LGA), with a maximum of 25000000 energy evaluations.

Final-Value: -15.148


	FINAL GENETIC ALGORITHM DOCKED STATE
	_______________________________________________


Detailed state:  trans 9.985 2.206 18.921 quatxyzw 0.017262 -0.327062 -0.492774 -0.806168 center 0.035 0.082 -0.065 ntor 24 -119.8171 9.8791 147.9485 124.2004 -3.8020 159.9638 -146.3804 -15.9954 128.2676 -34.4896 -174.6222 -23.6497 61.9597 70.0749 179.7730 16.3892 -180.0000 33.5775 39.0188 0.7018 173.3216 -25.0444 14.0763 -168.5851
State:	  9.985   2.206  18.921   0.029 -0.553 -0.833 -72.554   -119.82    9.88  147.95  124.20   -3.80  159.96 -146.38  -16.00  128.27  -34.49 -174.62  -23.65   61.96   70.07  179.77   16.39 -180.00   33.58   39.02    0.70  173.32  -25.04   14.08 -168.59

DOCKED: MODEL       81
DOCKED: USER    Run = 81
DOCKED: USER    DPF = D:/Protein_go_brrr/autodock/final/mut_D99N/IHP/dock.dpf
DOCKED: USER  
DOCKED: USER    Estimated Free Energy of Binding    =   +4.57 kcal/mol  [=(1)+(2)+(3)-(4)]
DOCKED: USER    
DOCKED: USER    (1) Final Intermolecular Energy     =   -2.59 kcal/mol
DOCKED: USER        vdW + Hbond + desolv Energy     =   -2.00 kcal/mol
DOCKED: USER        Electrostatic Energy            =   -0.58 kcal/mol
DOCKED: USER    (2) Final Total Internal Energy     =  -12.56 kcal/mol
DOCKED: USER    (3) Torsional Free Energy           =   +7.16 kcal/mol
DOCKED: USER    (4) Unbound System's Energy  [=(2)] =  -12.56 kcal/mol
DOCKED: USER    
DOCKED: USER    
DOCKED: USER    NEWDPF move IHP_ideal_opt.pdbqt
DOCKED: USER    NEWDPF about 0.035000 0.082000 -0.065000
DOCKED: USER    NEWDPF tran0 9.985472 2.206330 18.920744
DOCKED: USER    NEWDPF quaternion0 0.017262 -0.327062 -0.492774 -0.806168
DOCKED: USER    NEWDPF axisangle0 0.029174 -0.552761 -0.832829 -72.553659
DOCKED: USER    NEWDPF quat0 0.029174 -0.552761 -0.832829 -72.553659
DOCKED: USER    NEWDPF dihe0 -119.82 9.88 147.95 124.20 -3.80 159.96 -146.38 -16.00 128.27 -34.49 -174.62 -23.65 61.96 70.07 179.77 16.39 -180.00 33.58 39.02 0.70 173.32 -25.04 14.08 -168.59 
DOCKED: USER  keepresnum = 1 
DOCKED: USER  
DOCKED: REMARK  24 active torsions:
DOCKED: REMARK  status: ('A' for Active; 'I' for Inactive)
DOCKED: REMARK    1  A    between atoms: C_1  and  O_7 
DOCKED: REMARK    2  A    between atoms: C_2  and  O_12 
DOCKED: REMARK    3  A    between atoms: C_3  and  O_17 
DOCKED: REMARK    4  A    between atoms: C_4  and  O_22 
DOCKED: REMARK    5  A    between atoms: C_5  and  O_27 
DOCKED: REMARK    6  A    between atoms: C_6  and  O_32 
DOCKED: REMARK    7  A    between atoms: O_7  and  P_8 
DOCKED: REMARK    8  A    between atoms: P_8  and  O_10 
DOCKED: REMARK    9  A    between atoms: P_8  and  O_11 
DOCKED: REMARK   10  A    between atoms: O_12  and  P_13 
DOCKED: REMARK   11  A    between atoms: P_13  and  O_15 
DOCKED: REMARK   12  A    between atoms: P_13  and  O_16 
DOCKED: REMARK   13  A    between atoms: O_17  and  P_18 
DOCKED: REMARK   14  A    between atoms: P_18  and  O_20 
DOCKED: REMARK   15  A    between atoms: P_18  and  O_21 
DOCKED: REMARK   16  A    between atoms: O_22  and  P_23 
DOCKED: REMARK   17  A    between atoms: P_23  and  O_25 
DOCKED: REMARK   18  A    between atoms: P_23  and  O_26 
DOCKED: REMARK   19  A    between atoms: O_27  and  P_28 
DOCKED: REMARK   20  A    between atoms: P_28  and  O_30 
DOCKED: REMARK   21  A    between atoms: P_28  and  O_31 
DOCKED: REMARK   22  A    between atoms: O_32  and  P_33 
DOCKED: REMARK   23  A    between atoms: P_33  and  O_35 
DOCKED: REMARK   24  A    between atoms: P_33  and  O_36 
DOCKED: USER                              x       y       z     vdW  Elec       q    Type
DOCKED: USER                           _______ _______ _______ _____ _____    ______ ____
DOCKED: ROOT
DOCKED: ATOM      1  C   UNL d   1       9.236   0.973  19.871 -0.00 -0.03    +0.194 C 
DOCKED: ATOM      2  C   UNL d   1       8.432   1.457  18.662 -0.01 -0.04    +0.194 C 
DOCKED: ATOM      3  C   UNL d   1       8.477   2.981  18.525 -0.05 -0.09    +0.194 C 
DOCKED: ATOM      4  C   UNL d   1       9.896   3.544  18.537 -0.02 -0.06    +0.194 C 
DOCKED: ATOM      5  C   UNL d   1      10.770   2.999  19.660 -0.00 -0.04    +0.194 C 
DOCKED: ATOM      6  C   UNL d   1      10.677   1.482  19.837 +0.00 -0.03    +0.194 C 
DOCKED: ENDROOT
DOCKED: BRANCH   1   7
DOCKED: ATOM      7  O   UNL d   1       9.287  -0.455  19.829 +0.00 +0.03    -0.278 OA
DOCKED: BRANCH   7   8
DOCKED: ATOM      8  P   UNL d   1       8.055  -1.276  20.429 +0.00 -0.04    +0.473 P 
DOCKED: ATOM      9  O   UNL d   1       7.268  -2.051  19.431 +0.00 +0.01    -0.228 OA
DOCKED: BRANCH   8  10
DOCKED: ATOM     10  O   UNL d   1       8.714  -2.192  21.557 +0.00 +0.02    -0.303 OA
DOCKED: ATOM     11  H   UNL d   1       8.819  -1.674  22.377 +0.00 -0.01    +0.222 HD
DOCKED: ENDBRANCH   8  10
DOCKED: BRANCH   8  12
DOCKED: ATOM     12  O   UNL d   1       7.237  -0.222  21.291 +0.00 +0.03    -0.303 OA
DOCKED: ATOM     13  H   UNL d   1       7.812   0.437  21.742 +0.01 -0.03    +0.222 HD
DOCKED: ENDBRANCH   8  12
DOCKED: ENDBRANCH   7   8
DOCKED: ENDBRANCH   1   7
DOCKED: BRANCH   2  14
DOCKED: ATOM     14  O   UNL d   1       8.980   0.875  17.473 -0.00 +0.04    -0.278 OA
DOCKED: BRANCH  14  15
DOCKED: ATOM     15  P   UNL d   1       7.938   0.214  16.453 +0.01 -0.05    +0.473 P 
DOCKED: ATOM     16  O   UNL d   1       7.984   0.697  15.038 -0.05 +0.02    -0.228 OA
DOCKED: BRANCH  15  17
DOCKED: ATOM     17  O   UNL d   1       8.209  -1.350  16.581 +0.00 +0.04    -0.303 OA
DOCKED: ATOM     18  H   UNL d   1       8.180  -1.637  17.514 +0.01 -0.02    +0.222 HD
DOCKED: ENDBRANCH  15  17
DOCKED: BRANCH  15  19
DOCKED: ATOM     19  O   UNL d   1       6.529   0.354  17.180 -0.03 +0.03    -0.303 OA
DOCKED: ATOM     20  H   UNL d   1       6.272   1.288  17.290 +0.06 -0.03    +0.222 HD
DOCKED: ENDBRANCH  15  19
DOCKED: ENDBRANCH  14  15
DOCKED: ENDBRANCH   2  14
DOCKED: BRANCH   6  21
DOCKED: ATOM     21  O   UNL d   1      11.257   1.179  21.104 +0.00 +0.03    -0.278 OA
DOCKED: BRANCH  21  22
DOCKED: ATOM     22  P   UNL d   1      10.493   1.588  22.443 +0.01 -0.07    +0.473 P 
DOCKED: ATOM     23  O   UNL d   1      11.308   1.902  23.652 +0.00 +0.03    -0.228 OA
DOCKED: BRANCH  22  24
DOCKED: ATOM     24  O   UNL d   1       9.563   2.776  21.937 -0.00 +0.08    -0.303 OA
DOCKED: ATOM     25  H   UNL d   1      10.142   3.553  21.729 +0.01 -0.06    +0.222 HD
DOCKED: ENDBRANCH  22  24
DOCKED: BRANCH  22  26
DOCKED: ATOM     26  O   UNL d   1       9.441   0.387  22.597 +0.00 +0.04    -0.303 OA
DOCKED: ATOM     27  H   UNL d   1       9.397  -0.111  21.755 +0.00 -0.02    +0.222 HD
DOCKED: ENDBRANCH  22  26
DOCKED: ENDBRANCH  21  22
DOCKED: ENDBRANCH   6  21
DOCKED: BRANCH   3  28
DOCKED: ATOM     28  O   UNL d   1       7.951   3.311  17.246 -0.07 +0.12    -0.278 OA
DOCKED: BRANCH  28  29
DOCKED: ATOM     29  P   UNL d   1       6.381   3.482  17.041 -0.15 -0.25    +0.473 P 
DOCKED: ATOM     30  O   UNL d   1       5.536   3.060  18.188 -0.25 +0.14    -0.228 OA
DOCKED: BRANCH  29  31
DOCKED: ATOM     31  O   UNL d   1       6.320   5.025  16.623 -0.29 +0.25    -0.303 OA
DOCKED: ATOM     32  H   UNL d   1       6.141   5.562  17.429 -0.47 -0.46    +0.222 HD
DOCKED: ENDBRANCH  29  31
DOCKED: BRANCH  29  33
DOCKED: ATOM     33  O   UNL d   1       6.141   2.732  15.657 -0.07 +0.03    -0.303 OA
DOCKED: ATOM     34  H   UNL d   1       6.659   1.890  15.654 +0.07 -0.02    +0.222 HD
DOCKED: ENDBRANCH  29  33
DOCKED: ENDBRANCH  28  29
DOCKED: ENDBRANCH   3  28
DOCKED: BRANCH   5  35
DOCKED: ATOM     35  O   UNL d   1      12.113   3.297  19.284 +0.00 +0.04    -0.278 OA
DOCKED: BRANCH  35  36
DOCKED: ATOM     36  P   UNL d   1      13.193   3.681  20.393 +0.00 -0.05    +0.473 P 
DOCKED: ATOM     37  O   UNL d   1      14.073   4.845  20.061 +0.00 +0.02    -0.228 OA
DOCKED: BRANCH  36  38
DOCKED: ATOM     38  O   UNL d   1      12.278   3.898  21.678 +0.00 +0.05    -0.303 OA
DOCKED: ATOM     39  H   UNL d   1      11.777   3.074  21.858 +0.00 -0.03    +0.222 HD
DOCKED: ENDBRANCH  36  38
DOCKED: BRANCH  36  40
DOCKED: ATOM     40  O   UNL d   1      13.911   2.288  20.666 +0.00 +0.02    -0.303 OA
DOCKED: ATOM     41  H   UNL d   1      13.356   1.694  21.217 +0.00 -0.02    +0.222 HD
DOCKED: ENDBRANCH  36  40
DOCKED: ENDBRANCH  35  36
DOCKED: ENDBRANCH   5  35
DOCKED: BRANCH   4  42
DOCKED: ATOM     42  O   UNL d   1       9.780   4.956  18.741 -0.04 +0.14    -0.278 OA
DOCKED: BRANCH  42  43
DOCKED: ATOM     43  P   UNL d   1       9.548   5.505  20.220 -0.04 -0.34    +0.473 P 
DOCKED: ATOM     44  O   UNL d   1      10.736   5.593  21.115 -0.01 +0.08    -0.228 OA
DOCKED: BRANCH  43  45
DOCKED: ATOM     45  O   UNL d   1       8.821   6.898  19.965 -0.09 +0.37    -0.303 OA
DOCKED: ATOM     46  H   UNL d   1       7.893   6.879  20.274 -0.46 -0.55    +0.222 HD
DOCKED: ENDBRANCH  43  45
DOCKED: BRANCH  43  47
DOCKED: ATOM     47  O   UNL d   1       8.340   4.601  20.761 -0.09 +0.32    -0.303 OA
DOCKED: ATOM     48  H   UNL d   1       8.373   4.570  21.739 +0.01 -0.18    +0.222 HD
DOCKED: ENDBRANCH  43  47
DOCKED: ENDBRANCH  42  43
DOCKED: ENDBRANCH   4  42
DOCKED: TORSDOF 24
DOCKED: TER
DOCKED: ENDMDL
________________________________________________________________________________


	BEGINNING GENETIC ALGORITHM DOCKING 82 of 100
Run: 82 Seed: 1801743809 1376984161 [ Run 82 of 100 GA/GALS ]
Beginning LAMARCKIAN GENETIC ALGORITHM (LGA), with a maximum of 25000000 energy evaluations.

Final-Value: -19.942


	FINAL GENETIC ALGORITHM DOCKED STATE
	_______________________________________________


Detailed state:  trans 17.754 -7.444 6.614 quatxyzw -0.110201 0.229646 -0.961502 -0.103112 center 0.035 0.082 -0.065 ntor 24 116.1810 73.6895 105.8922 115.3376 20.3944 -162.9514 -107.5135 -13.2087 107.8362 -158.8722 153.4450 -62.5846 178.1407 98.3669 -47.2802 151.9370 -180.0000 44.3823 21.1768 7.2863 176.8758 25.3747 13.1111 -168.9089
State:	 17.754  -7.444   6.614  -0.111  0.231 -0.967 -168.163    116.18   73.69  105.89  115.34   20.39 -162.95 -107.51  -13.21  107.84 -158.87  153.45  -62.58  178.14   98.37  -47.28  151.94 -180.00   44.38   21.18    7.29  176.88   25.37   13.11 -168.91

DOCKED: MODEL       82
DOCKED: USER    Run = 82
DOCKED: USER    DPF = D:/Protein_go_brrr/autodock/final/mut_D99N/IHP/dock.dpf
DOCKED: USER  
DOCKED: USER    Estimated Free Energy of Binding    =   +0.62 kcal/mol  [=(1)+(2)+(3)-(4)]
DOCKED: USER    
DOCKED: USER    (1) Final Intermolecular Energy     =   -6.54 kcal/mol
DOCKED: USER        vdW + Hbond + desolv Energy     =   -6.14 kcal/mol
DOCKED: USER        Electrostatic Energy            =   -0.40 kcal/mol
DOCKED: USER    (2) Final Total Internal Energy     =  -13.40 kcal/mol
DOCKED: USER    (3) Torsional Free Energy           =   +7.16 kcal/mol
DOCKED: USER    (4) Unbound System's Energy  [=(2)] =  -13.40 kcal/mol
DOCKED: USER    
DOCKED: USER    
DOCKED: USER    NEWDPF move IHP_ideal_opt.pdbqt
DOCKED: USER    NEWDPF about 0.035000 0.082000 -0.065000
DOCKED: USER    NEWDPF tran0 17.753891 -7.444460 6.614327
DOCKED: USER    NEWDPF quaternion0 -0.110201 0.229646 -0.961502 -0.103112
DOCKED: USER    NEWDPF axisangle0 -0.110791 0.230876 -0.966655 -168.163146
DOCKED: USER    NEWDPF quat0 -0.110791 0.230876 -0.966655 -168.163146
DOCKED: USER    NEWDPF dihe0 116.18 73.69 105.89 115.34 20.39 -162.95 -107.51 -13.21 107.84 -158.87 153.45 -62.58 178.14 98.37 -47.28 151.94 -180.00 44.38 21.18 7.29 176.88 25.37 13.11 -168.91 
DOCKED: USER  keepresnum = 1 
DOCKED: USER  
DOCKED: REMARK  24 active torsions:
DOCKED: REMARK  status: ('A' for Active; 'I' for Inactive)
DOCKED: REMARK    1  A    between atoms: C_1  and  O_7 
DOCKED: REMARK    2  A    between atoms: C_2  and  O_12 
DOCKED: REMARK    3  A    between atoms: C_3  and  O_17 
DOCKED: REMARK    4  A    between atoms: C_4  and  O_22 
DOCKED: REMARK    5  A    between atoms: C_5  and  O_27 
DOCKED: REMARK    6  A    between atoms: C_6  and  O_32 
DOCKED: REMARK    7  A    between atoms: O_7  and  P_8 
DOCKED: REMARK    8  A    between atoms: P_8  and  O_10 
DOCKED: REMARK    9  A    between atoms: P_8  and  O_11 
DOCKED: REMARK   10  A    between atoms: O_12  and  P_13 
DOCKED: REMARK   11  A    between atoms: P_13  and  O_15 
DOCKED: REMARK   12  A    between atoms: P_13  and  O_16 
DOCKED: REMARK   13  A    between atoms: O_17  and  P_18 
DOCKED: REMARK   14  A    between atoms: P_18  and  O_20 
DOCKED: REMARK   15  A    between atoms: P_18  and  O_21 
DOCKED: REMARK   16  A    between atoms: O_22  and  P_23 
DOCKED: REMARK   17  A    between atoms: P_23  and  O_25 
DOCKED: REMARK   18  A    between atoms: P_23  and  O_26 
DOCKED: REMARK   19  A    between atoms: O_27  and  P_28 
DOCKED: REMARK   20  A    between atoms: P_28  and  O_30 
DOCKED: REMARK   21  A    between atoms: P_28  and  O_31 
DOCKED: REMARK   22  A    between atoms: O_32  and  P_33 
DOCKED: REMARK   23  A    between atoms: P_33  and  O_35 
DOCKED: REMARK   24  A    between atoms: P_33  and  O_36 
DOCKED: USER                              x       y       z     vdW  Elec       q    Type
DOCKED: USER                           _______ _______ _______ _____ _____    ______ ____
DOCKED: ROOT
DOCKED: ATOM      1  C   UNL d   1      16.632  -7.312   7.921 -0.21 -0.04    +0.194 C 
DOCKED: ATOM      2  C   UNL d   1      17.609  -6.145   7.768 -0.15 -0.01    +0.194 C 
DOCKED: ATOM      3  C   UNL d   1      19.030  -6.630   7.474 -0.10 +0.02    +0.194 C 
DOCKED: ATOM      4  C   UNL d   1      19.103  -7.602   6.299 -0.20 +0.06    +0.194 C 
DOCKED: ATOM      5  C   UNL d   1      18.068  -8.719   6.352 -0.24 +0.02    +0.194 C 
DOCKED: ATOM      6  C   UNL d   1      16.658  -8.241   6.707 -0.25 -0.03    +0.194 C 
DOCKED: ENDROOT
DOCKED: BRANCH   1   7
DOCKED: ATOM      7  O   UNL d   1      15.310  -6.777   8.020 -0.23 +0.13    -0.278 OA
DOCKED: BRANCH   7   8
DOCKED: ATOM      8  P   UNL d   1      14.636  -6.680   9.465 -0.12 -0.18    +0.473 P 
DOCKED: ATOM      9  O   UNL d   1      13.263  -7.244   9.561 -0.25 +0.09    -0.228 OA
DOCKED: BRANCH   8  10
DOCKED: ATOM     10  O   UNL d   1      15.682  -7.404  10.429 -0.03 +0.06    -0.303 OA
DOCKED: ATOM     11  H   UNL d   1      16.024  -8.207   9.994 +0.04 -0.04    +0.222 HD
DOCKED: ENDBRANCH   8  10
DOCKED: BRANCH   8  12
DOCKED: ATOM     12  O   UNL d   1      14.792  -5.157   9.891 -0.21 +0.11    -0.303 OA
DOCKED: ATOM     13  H   UNL d   1      14.817  -4.542   9.123 -0.29 -0.13    +0.222 HD
DOCKED: ENDBRANCH   8  12
DOCKED: ENDBRANCH   7   8
DOCKED: ENDBRANCH   1   7
DOCKED: BRANCH   2  14
DOCKED: ATOM     14  O   UNL d   1      17.177  -5.314   6.683 -0.16 +0.03    -0.278 OA
DOCKED: BRANCH  14  15
DOCKED: ATOM     15  P   UNL d   1      17.284  -3.732   6.907 -0.16 -0.05    +0.473 P 
DOCKED: ATOM     16  O   UNL d   1      17.430  -2.888   5.680 -0.21 +0.02    -0.228 OA
DOCKED: BRANCH  15  17
DOCKED: ATOM     17  O   UNL d   1      15.983  -3.371   7.753 -0.19 +0.08    -0.303 OA
DOCKED: ATOM     18  H   UNL d   1      15.532  -4.179   8.066 -0.51 -0.14    +0.222 HD
DOCKED: ENDBRANCH  15  17
DOCKED: BRANCH  15  19
DOCKED: ATOM     19  O   UNL d   1      18.431  -3.562   7.997 -0.03 +0.01    -0.303 OA
DOCKED: ATOM     20  H   UNL d   1      19.261  -3.989   7.716 +0.05 +0.01    +0.222 HD
DOCKED: ENDBRANCH  15  19
DOCKED: ENDBRANCH  14  15
DOCKED: ENDBRANCH   2  14
DOCKED: BRANCH   6  21
DOCKED: ATOM     21  O   UNL d   1      15.905  -9.401   7.051 -0.21 +0.09    -0.278 OA
DOCKED: BRANCH  21  22
DOCKED: ATOM     22  P   UNL d   1      16.151 -10.118   8.455 -0.03 -0.09    +0.473 P 
DOCKED: ATOM     23  O   UNL d   1      17.406  -9.803   9.196 -0.02 +0.02    -0.228 OA
DOCKED: BRANCH  22  24
DOCKED: ATOM     24  O   UNL d   1      14.809  -9.770   9.237 -0.06 +0.08    -0.303 OA
DOCKED: ATOM     25  H   UNL d   1      14.614  -8.808   9.102 +0.03 -0.08    +0.222 HD
DOCKED: ENDBRANCH  22  24
DOCKED: BRANCH  22  26
DOCKED: ATOM     26  O   UNL d   1      15.924 -11.659   8.078 -0.02 +0.07    -0.303 OA
DOCKED: ATOM     27  H   UNL d   1      16.070 -11.780   7.117 +0.06 -0.07    +0.222 HD
DOCKED: ENDBRANCH  22  26
DOCKED: ENDBRANCH  21  22
DOCKED: ENDBRANCH   6  21
DOCKED: BRANCH   3  28
DOCKED: ATOM     28  O   UNL d   1      19.795  -5.499   7.077 -0.06 -0.04    -0.278 OA
DOCKED: BRANCH  28  29
DOCKED: ATOM     29  P   UNL d   1      21.264  -5.281   7.651 -0.01 +0.09    +0.473 P 
DOCKED: ATOM     30  O   UNL d   1      22.330  -5.098   6.631 -0.06 -0.07    -0.228 OA
DOCKED: BRANCH  29  31
DOCKED: ATOM     31  O   UNL d   1      20.996  -4.058   8.648 -0.00 -0.03    -0.303 OA
DOCKED: ATOM     32  H   UNL d   1      20.586  -3.321   8.138 +0.02 +0.01    +0.222 HD
DOCKED: ENDBRANCH  29  31
DOCKED: BRANCH  29  33
DOCKED: ATOM     33  O   UNL d   1      21.423  -6.515   8.644 -0.01 -0.06    -0.303 OA
DOCKED: ATOM     34  H   UNL d   1      21.105  -7.334   8.191 +0.03 +0.06    +0.222 HD
DOCKED: ENDBRANCH  29  33
DOCKED: ENDBRANCH  28  29
DOCKED: ENDBRANCH   3  28
DOCKED: BRANCH   5  35
DOCKED: ATOM     35  O   UNL d   1      18.010  -9.255   5.032 -0.59 -0.04    -0.278 OA
DOCKED: BRANCH  35  36
DOCKED: ATOM     36  P   UNL d   1      17.793 -10.820   4.808 -0.27 -0.09    +0.473 P 
DOCKED: ATOM     37  O   UNL d   1      18.671 -11.452   3.775 -0.35 +0.01    -0.228 OA
DOCKED: BRANCH  36  38
DOCKED: ATOM     38  O   UNL d   1      17.999 -11.391   6.280 -0.07 +0.04    -0.303 OA
DOCKED: ATOM     39  H   UNL d   1      17.607 -10.764   6.926 +0.07 -0.02    +0.222 HD
DOCKED: ENDBRANCH  36  38
DOCKED: BRANCH  36  40
DOCKED: ATOM     40  O   UNL d   1      16.222 -10.915   4.577 -0.28 +0.23    -0.303 OA
DOCKED: ATOM     41  H   UNL d   1      15.972 -11.746   4.114 -0.44 -0.37    +0.222 HD
DOCKED: ENDBRANCH  36  40
DOCKED: ENDBRANCH  35  36
DOCKED: ENDBRANCH   5  35
DOCKED: BRANCH   4  42
DOCKED: ATOM     42  O   UNL d   1      20.393  -8.220   6.351 -0.24 -0.12    -0.278 OA
DOCKED: BRANCH  42  43
DOCKED: ATOM     43  P   UNL d   1      20.631  -9.422   7.372 -0.08 +0.17    +0.473 P 
DOCKED: ATOM     44  O   UNL d   1      20.361 -10.803   6.882 -0.08 -0.07    -0.228 OA
DOCKED: BRANCH  43  45
DOCKED: ATOM     45  O   UNL d   1      22.130  -9.183   7.849 -0.08 -0.19    -0.303 OA
DOCKED: ATOM     46  H   UNL d   1      22.180  -8.493   8.541 +0.02 +0.09    +0.222 HD
DOCKED: ENDBRANCH  43  45
DOCKED: BRANCH  43  47
DOCKED: ATOM     47  O   UNL d   1      19.801  -8.973   8.667 -0.01 -0.04    -0.303 OA
DOCKED: ATOM     48  H   UNL d   1      19.076  -9.613   8.824 +0.03 +0.01    +0.222 HD
DOCKED: ENDBRANCH  43  47
DOCKED: ENDBRANCH  42  43
DOCKED: ENDBRANCH   4  42
DOCKED: TORSDOF 24
DOCKED: TER
DOCKED: ENDMDL
________________________________________________________________________________


	BEGINNING GENETIC ALGORITHM DOCKING 83 of 100
Run: 83 Seed: 385154159 1071684931 [ Run 83 of 100 GA/GALS ]
Beginning LAMARCKIAN GENETIC ALGORITHM (LGA), with a maximum of 25000000 energy evaluations.

Final-Value: -18.713


	FINAL GENETIC ALGORITHM DOCKED STATE
	_______________________________________________


Detailed state:  trans 7.132 -0.458 14.831 quatxyzw -0.286109 0.014269 -0.949189 0.130301 center 0.035 0.082 -0.065 ntor 24 95.3697 157.1736 139.7458 171.5362 2.9030 180.0000 -51.4297 -111.3496 -35.0258 138.5598 151.9686 -179.1074 137.9583 73.3215 155.5401 -33.6650 -46.6436 -133.9058 -6.4682 23.0191 -25.3113 2.5227 179.2457 6.0449
State:	  7.132  -0.458  14.831  -0.289  0.014 -0.957 165.026     95.37  157.17  139.75  171.54    2.90  180.00  -51.43 -111.35  -35.03  138.56  151.97 -179.11  137.96   73.32  155.54  -33.66  -46.64 -133.91   -6.47   23.02  -25.31    2.52  179.25    6.04

DOCKED: MODEL       83
DOCKED: USER    Run = 83
DOCKED: USER    DPF = D:/Protein_go_brrr/autodock/final/mut_D99N/IHP/dock.dpf
DOCKED: USER  
DOCKED: USER    Estimated Free Energy of Binding    =   +1.82 kcal/mol  [=(1)+(2)+(3)-(4)]
DOCKED: USER    
DOCKED: USER    (1) Final Intermolecular Energy     =   -5.34 kcal/mol
DOCKED: USER        vdW + Hbond + desolv Energy     =   -4.97 kcal/mol
DOCKED: USER        Electrostatic Energy            =   -0.36 kcal/mol
DOCKED: USER    (2) Final Total Internal Energy     =  -13.38 kcal/mol
DOCKED: USER    (3) Torsional Free Energy           =   +7.16 kcal/mol
DOCKED: USER    (4) Unbound System's Energy  [=(2)] =  -13.38 kcal/mol
DOCKED: USER    
DOCKED: USER    
DOCKED: USER    NEWDPF move IHP_ideal_opt.pdbqt
DOCKED: USER    NEWDPF about 0.035000 0.082000 -0.065000
DOCKED: USER    NEWDPF tran0 7.131636 -0.457629 14.830535
DOCKED: USER    NEWDPF quaternion0 -0.286109 0.014269 -0.949189 0.130301
DOCKED: USER    NEWDPF axisangle0 -0.288569 0.014392 -0.957351 165.025991
DOCKED: USER    NEWDPF quat0 -0.288569 0.014392 -0.957351 165.025991
DOCKED: USER    NEWDPF dihe0 95.37 157.17 139.75 171.54 2.90 180.00 -51.43 -111.35 -35.03 138.56 151.97 -179.11 137.96 73.32 155.54 -33.66 -46.64 -133.91 -6.47 23.02 -25.31 2.52 179.25 6.04 
DOCKED: USER  keepresnum = 1 
DOCKED: USER  
DOCKED: REMARK  24 active torsions:
DOCKED: REMARK  status: ('A' for Active; 'I' for Inactive)
DOCKED: REMARK    1  A    between atoms: C_1  and  O_7 
DOCKED: REMARK    2  A    between atoms: C_2  and  O_12 
DOCKED: REMARK    3  A    between atoms: C_3  and  O_17 
DOCKED: REMARK    4  A    between atoms: C_4  and  O_22 
DOCKED: REMARK    5  A    between atoms: C_5  and  O_27 
DOCKED: REMARK    6  A    between atoms: C_6  and  O_32 
DOCKED: REMARK    7  A    between atoms: O_7  and  P_8 
DOCKED: REMARK    8  A    between atoms: P_8  and  O_10 
DOCKED: REMARK    9  A    between atoms: P_8  and  O_11 
DOCKED: REMARK   10  A    between atoms: O_12  and  P_13 
DOCKED: REMARK   11  A    between atoms: P_13  and  O_15 
DOCKED: REMARK   12  A    between atoms: P_13  and  O_16 
DOCKED: REMARK   13  A    between atoms: O_17  and  P_18 
DOCKED: REMARK   14  A    between atoms: P_18  and  O_20 
DOCKED: REMARK   15  A    between atoms: P_18  and  O_21 
DOCKED: REMARK   16  A    between atoms: O_22  and  P_23 
DOCKED: REMARK   17  A    between atoms: P_23  and  O_25 
DOCKED: REMARK   18  A    between atoms: P_23  and  O_26 
DOCKED: REMARK   19  A    between atoms: O_27  and  P_28 
DOCKED: REMARK   20  A    between atoms: P_28  and  O_30 
DOCKED: REMARK   21  A    between atoms: P_28  and  O_31 
DOCKED: REMARK   22  A    between atoms: O_32  and  P_33 
DOCKED: REMARK   23  A    between atoms: P_33  and  O_35 
DOCKED: REMARK   24  A    between atoms: P_33  and  O_36 
DOCKED: USER                              x       y       z     vdW  Elec       q    Type
DOCKED: USER                           _______ _______ _______ _____ _____    ______ ____
DOCKED: ROOT
DOCKED: ATOM      1  C   UNL d   1       6.780   0.619  16.135 -0.08 -0.02    +0.194 C 
DOCKED: ATOM      2  C   UNL d   1       7.788   1.135  15.106 -0.07 -0.02    +0.194 C 
DOCKED: ATOM      3  C   UNL d   1       8.792   0.052  14.704 -0.03 -0.02    +0.194 C 
DOCKED: ATOM      4  C   UNL d   1       8.127  -1.249  14.260 -0.06 -0.05    +0.194 C 
DOCKED: ATOM      5  C   UNL d   1       7.034  -1.740  15.201 -0.03 -0.03    +0.194 C 
DOCKED: ATOM      6  C   UNL d   1       6.066  -0.644  15.651 -0.08 -0.01    +0.194 C 
DOCKED: ENDROOT
DOCKED: BRANCH   1   7
DOCKED: ATOM      7  O   UNL d   1       5.783   1.626  16.325 -0.13 +0.02    -0.278 OA
DOCKED: BRANCH   7   8
DOCKED: ATOM      8  P   UNL d   1       5.438   2.080  17.817 -0.14 -0.12    +0.473 P 
DOCKED: ATOM      9  O   UNL d   1       4.245   2.960  17.950 -0.38 +0.07    -0.228 OA
DOCKED: BRANCH   8  10
DOCKED: ATOM     10  O   UNL d   1       5.298   0.707  18.618 -0.05 +0.02    -0.303 OA
DOCKED: ATOM     11  H   UNL d   1       4.559   0.188  18.249 +0.07 +0.02    +0.222 HD
DOCKED: ENDBRANCH   8  10
DOCKED: BRANCH   8  12
DOCKED: ATOM     12  O   UNL d   1       6.798   2.664  18.395 -0.09 +0.16    -0.303 OA
DOCKED: ATOM     13  H   UNL d   1       6.766   3.635  18.550 -0.15 -0.25    +0.222 HD
DOCKED: ENDBRANCH   8  12
DOCKED: ENDBRANCH   7   8
DOCKED: ENDBRANCH   1   7
DOCKED: BRANCH   2  14
DOCKED: ATOM     14  O   UNL d   1       7.082   1.560  13.933 -0.13 +0.00    -0.278 OA
DOCKED: BRANCH  14  15
DOCKED: ATOM     15  P   UNL d   1       7.801   2.667  13.027 -0.12 +0.06    +0.473 P 
DOCKED: ATOM     16  O   UNL d   1       7.916   2.367  11.565 -0.21 -0.11    -0.228 OA
DOCKED: BRANCH  15  17
DOCKED: ATOM     17  O   UNL d   1       6.982   4.001  13.321 -0.14 -0.02    -0.303 OA
DOCKED: ATOM     18  H   UNL d   1       6.805   4.102  14.276 +0.11 -0.01    +0.222 HD
DOCKED: ENDBRANCH  15  17
DOCKED: BRANCH  15  19
DOCKED: ATOM     19  O   UNL d   1       9.173   2.963  13.776 -0.05 -0.03    -0.303 OA
DOCKED: ATOM     20  H   UNL d   1       9.939   2.646  13.263 +0.05 +0.04    +0.222 HD
DOCKED: ENDBRANCH  15  19
DOCKED: ENDBRANCH  14  15
DOCKED: ENDBRANCH   2  14
DOCKED: BRANCH   6  21
DOCKED: ATOM     21  O   UNL d   1       5.340  -1.166  16.762 -0.04 -0.02    -0.278 OA
DOCKED: BRANCH  21  22
DOCKED: ATOM     22  P   UNL d   1       3.746  -1.121  16.757 -0.13 +0.21    +0.473 P 
DOCKED: ATOM     23  O   UNL d   1       3.025  -1.556  17.988 -0.67 -0.23    -0.228 OA
DOCKED: BRANCH  22  24
DOCKED: ATOM     24  O   UNL d   1       3.463   0.381  16.314 -0.07 -0.06    -0.303 OA
DOCKED: ATOM     25  H   UNL d   1       3.831   0.982  17.011 +0.08 +0.03    +0.222 HD
DOCKED: ENDBRANCH  22  24
DOCKED: BRANCH  22  26
DOCKED: ATOM     26  O   UNL d   1       3.401  -1.931  15.417 -0.15 -0.14    -0.303 OA
DOCKED: ATOM     27  H   UNL d   1       4.228  -2.298  15.042 +0.08 +0.03    +0.222 HD
DOCKED: ENDBRANCH  22  26
DOCKED: ENDBRANCH  21  22
DOCKED: ENDBRANCH   6  21
DOCKED: BRANCH   3  28
DOCKED: ATOM     28  O   UNL d   1       9.497   0.524  13.563 -0.07 +0.01    -0.278 OA
DOCKED: BRANCH  28  29
DOCKED: ATOM     29  P   UNL d   1      11.051   0.858  13.660 -0.04 +0.02    +0.473 P 
DOCKED: ATOM     30  O   UNL d   1      11.421   1.904  14.647 -0.01 -0.00    -0.228 OA
DOCKED: BRANCH  29  31
DOCKED: ATOM     31  O   UNL d   1      11.638  -0.611  13.904 -0.06 +0.02    -0.303 OA
DOCKED: ATOM     32  H   UNL d   1      10.889  -1.250  13.916 +0.04 -0.03    +0.222 HD
DOCKED: ENDBRANCH  29  31
DOCKED: BRANCH  29  33
DOCKED: ATOM     33  O   UNL d   1      11.428   1.139  12.139 -0.20 -0.12    -0.303 OA
DOCKED: ATOM     34  H   UNL d   1      11.121   0.378  11.586 +0.05 +0.07    +0.222 HD
DOCKED: ENDBRANCH  29  33
DOCKED: ENDBRANCH  28  29
DOCKED: ENDBRANCH   3  28
DOCKED: BRANCH   5  35
DOCKED: ATOM     35  O   UNL d   1       6.276  -2.688  14.451 -0.04 +0.08    -0.278 OA
DOCKED: BRANCH  35  36
DOCKED: ATOM     36  P   UNL d   1       5.737  -2.317  12.996 -0.12 -0.21    +0.473 P 
DOCKED: ATOM     37  O   UNL d   1       6.038  -0.928  12.532 -0.25 +0.08    -0.228 OA
DOCKED: BRANCH  36  38
DOCKED: ATOM     38  O   UNL d   1       6.392  -3.462  12.105 -0.25 +0.34    -0.303 OA
DOCKED: ATOM     39  H   UNL d   1       7.139  -3.083  11.593 -0.13 -0.43    +0.222 HD
DOCKED: ENDBRANCH  36  38
DOCKED: BRANCH  36  40
DOCKED: ATOM     40  O   UNL d   1       4.204  -2.732  13.086 -0.18 +0.06    -0.303 OA
DOCKED: ATOM     41  H   UNL d   1       3.630  -1.961  13.292 +0.13 -0.00    +0.222 HD
DOCKED: ENDBRANCH  36  40
DOCKED: ENDBRANCH  35  36
DOCKED: ENDBRANCH   5  35
DOCKED: BRANCH   4  42
DOCKED: ATOM     42  O   UNL d   1       9.149  -2.252  14.243 -0.03 +0.09    -0.278 OA
DOCKED: BRANCH  42  43
DOCKED: ATOM     43  P   UNL d   1       9.729  -2.738  12.839 -0.08 -0.23    +0.473 P 
DOCKED: ATOM     44  O   UNL d   1       9.028  -3.863  12.159 -0.26 +0.22    -0.228 OA
DOCKED: BRANCH  43  45
DOCKED: ATOM     45  O   UNL d   1       9.771  -1.391  11.993 -0.33 +0.17    -0.303 OA
DOCKED: ATOM     46  H   UNL d   1      10.547  -0.844  12.229 +0.05 -0.04    +0.222 HD
DOCKED: ENDBRANCH  43  45
DOCKED: BRANCH  43  47
DOCKED: ATOM     47  O   UNL d   1      11.284  -2.978  13.148 -0.62 +0.04    -0.303 OA
DOCKED: ATOM     48  H   UNL d   1      11.462  -2.766  14.088 +0.03 -0.04    +0.222 HD
DOCKED: ENDBRANCH  43  47
DOCKED: ENDBRANCH  42  43
DOCKED: ENDBRANCH   4  42
DOCKED: TORSDOF 24
DOCKED: TER
DOCKED: ENDMDL
________________________________________________________________________________


	BEGINNING GENETIC ALGORITHM DOCKING 84 of 100
Run: 84 Seed: 1765729419 858354419 [ Run 84 of 100 GA/GALS ]
Beginning LAMARCKIAN GENETIC ALGORITHM (LGA), with a maximum of 25000000 energy evaluations.

Final-Value: -18.300


	FINAL GENETIC ALGORITHM DOCKED STATE
	_______________________________________________


Detailed state:  trans -15.884 6.981 -18.411 quatxyzw 0.684159 0.124044 0.584749 0.417861 center 0.035 0.082 -0.065 ntor 24 -35.1667 100.4276 -162.2557 -31.1353 38.6169 160.3137 -8.5367 -115.9395 121.1682 6.2972 8.3653 -132.4466 6.6275 176.8102 -57.9310 -115.3778 100.8949 -45.6154 -14.6358 21.1556 1.2875 19.8624 -23.9798 177.3206
State:	-15.884   6.981 -18.411   0.753  0.137  0.644 130.601    -35.17  100.43 -162.26  -31.14   38.62  160.31   -8.54 -115.94  121.17    6.30    8.37 -132.45    6.63  176.81  -57.93 -115.38  100.89  -45.62  -14.64   21.16    1.29   19.86  -23.98  177.32

DOCKED: MODEL       84
DOCKED: USER    Run = 84
DOCKED: USER    DPF = D:/Protein_go_brrr/autodock/final/mut_D99N/IHP/dock.dpf
DOCKED: USER  
DOCKED: USER    Estimated Free Energy of Binding    =   +2.97 kcal/mol  [=(1)+(2)+(3)-(4)]
DOCKED: USER    
DOCKED: USER    (1) Final Intermolecular Energy     =   -4.19 kcal/mol
DOCKED: USER        vdW + Hbond + desolv Energy     =   -3.59 kcal/mol
DOCKED: USER        Electrostatic Energy            =   -0.59 kcal/mol
DOCKED: USER    (2) Final Total Internal Energy     =  -14.11 kcal/mol
DOCKED: USER    (3) Torsional Free Energy           =   +7.16 kcal/mol
DOCKED: USER    (4) Unbound System's Energy  [=(2)] =  -14.11 kcal/mol
DOCKED: USER    
DOCKED: USER    
DOCKED: USER    NEWDPF move IHP_ideal_opt.pdbqt
DOCKED: USER    NEWDPF about 0.035000 0.082000 -0.065000
DOCKED: USER    NEWDPF tran0 -15.883686 6.981395 -18.410666
DOCKED: USER    NEWDPF quaternion0 0.684159 0.124044 0.584749 0.417861
DOCKED: USER    NEWDPF axisangle0 0.753056 0.136535 0.643635 130.600826
DOCKED: USER    NEWDPF quat0 0.753056 0.136535 0.643635 130.600826
DOCKED: USER    NEWDPF dihe0 -35.17 100.43 -162.26 -31.14 38.62 160.31 -8.54 -115.94 121.17 6.30 8.37 -132.45 6.63 176.81 -57.93 -115.38 100.89 -45.62 -14.64 21.16 1.29 19.86 -23.98 177.32 
DOCKED: USER  keepresnum = 1 
DOCKED: USER  
DOCKED: REMARK  24 active torsions:
DOCKED: REMARK  status: ('A' for Active; 'I' for Inactive)
DOCKED: REMARK    1  A    between atoms: C_1  and  O_7 
DOCKED: REMARK    2  A    between atoms: C_2  and  O_12 
DOCKED: REMARK    3  A    between atoms: C_3  and  O_17 
DOCKED: REMARK    4  A    between atoms: C_4  and  O_22 
DOCKED: REMARK    5  A    between atoms: C_5  and  O_27 
DOCKED: REMARK    6  A    between atoms: C_6  and  O_32 
DOCKED: REMARK    7  A    between atoms: O_7  and  P_8 
DOCKED: REMARK    8  A    between atoms: P_8  and  O_10 
DOCKED: REMARK    9  A    between atoms: P_8  and  O_11 
DOCKED: REMARK   10  A    between atoms: O_12  and  P_13 
DOCKED: REMARK   11  A    between atoms: P_13  and  O_15 
DOCKED: REMARK   12  A    between atoms: P_13  and  O_16 
DOCKED: REMARK   13  A    between atoms: O_17  and  P_18 
DOCKED: REMARK   14  A    between atoms: P_18  and  O_20 
DOCKED: REMARK   15  A    between atoms: P_18  and  O_21 
DOCKED: REMARK   16  A    between atoms: O_22  and  P_23 
DOCKED: REMARK   17  A    between atoms: P_23  and  O_25 
DOCKED: REMARK   18  A    between atoms: P_23  and  O_26 
DOCKED: REMARK   19  A    between atoms: O_27  and  P_28 
DOCKED: REMARK   20  A    between atoms: P_28  and  O_30 
DOCKED: REMARK   21  A    between atoms: P_28  and  O_31 
DOCKED: REMARK   22  A    between atoms: O_32  and  P_33 
DOCKED: REMARK   23  A    between atoms: P_33  and  O_35 
DOCKED: REMARK   24  A    between atoms: P_33  and  O_36 
DOCKED: USER                              x       y       z     vdW  Elec       q    Type
DOCKED: USER                           _______ _______ _______ _____ _____    ______ ____
DOCKED: ROOT
DOCKED: ATOM      1  C   UNL d   1     -15.560   7.699 -16.873 -0.05 -0.17    +0.194 C 
DOCKED: ATOM      2  C   UNL d   1     -16.702   8.331 -17.670 -0.03 -0.09    +0.194 C 
DOCKED: ATOM      3  C   UNL d   1     -16.342   8.490 -19.149 -0.02 -0.08    +0.194 C 
DOCKED: ATOM      4  C   UNL d   1     -15.838   7.198 -19.787 -0.01 -0.06    +0.194 C 
DOCKED: ATOM      5  C   UNL d   1     -14.778   6.473 -18.968 -0.04 -0.08    +0.194 C 
DOCKED: ATOM      6  C   UNL d   1     -15.111   6.369 -17.478 -0.07 -0.10    +0.194 C 
DOCKED: ENDROOT
DOCKED: BRANCH   1   7
DOCKED: ATOM      7  O   UNL d   1     -16.034   7.428 -15.552 -0.09 +0.17    -0.278 OA
DOCKED: BRANCH   7   8
DOCKED: ATOM      8  P   UNL d   1     -15.079   7.768 -14.318 -0.05 -0.44    +0.473 P 
DOCKED: ATOM      9  O   UNL d   1     -14.652   9.191 -14.223 -0.28 +0.28    -0.228 OA
DOCKED: BRANCH   8  10
DOCKED: ATOM     10  O   UNL d   1     -15.902   7.273 -13.044 -0.19 +0.19    -0.303 OA
DOCKED: ATOM     11  H   UNL d   1     -15.316   7.251 -12.265 -0.46 -0.20    +0.222 HD
DOCKED: ENDBRANCH   8  10
DOCKED: BRANCH   8  12
DOCKED: ATOM     12  O   UNL d   1     -13.909   6.696 -14.394 -0.21 +0.26    -0.303 OA
DOCKED: ATOM     13  H   UNL d   1     -13.448   6.689 -15.264 -0.42 -0.34    +0.222 HD
DOCKED: ENDBRANCH   8  12
DOCKED: ENDBRANCH   7   8
DOCKED: ENDBRANCH   1   7
DOCKED: BRANCH   2  14
DOCKED: ATOM     14  O   UNL d   1     -17.861   7.494 -17.570 -0.00 +0.06    -0.278 OA
DOCKED: BRANCH  14  15
DOCKED: ATOM     15  P   UNL d   1     -19.282   8.217 -17.718 +0.01 -0.07    +0.473 P 
DOCKED: ATOM     16  O   UNL d   1     -20.281   7.963 -16.633 +0.00 +0.03    -0.228 OA
DOCKED: BRANCH  15  17
DOCKED: ATOM     17  O   UNL d   1     -18.917   9.760 -17.872 +0.00 +0.06    -0.303 OA
DOCKED: ATOM     18  H   UNL d   1     -18.979  10.044 -18.805 +0.00 -0.04    +0.222 HD
DOCKED: ENDBRANCH  15  17
DOCKED: BRANCH  15  19
DOCKED: ATOM     19  O   UNL d   1     -19.761   7.853 -19.190 +0.00 +0.03    -0.303 OA
DOCKED: ATOM     20  H   UNL d   1     -19.470   8.520 -19.839 +0.00 -0.02    +0.222 HD
DOCKED: ENDBRANCH  15  19
DOCKED: ENDBRANCH  14  15
DOCKED: ENDBRANCH   2  14
DOCKED: BRANCH   6  21
DOCKED: ATOM     21  O   UNL d   1     -13.907   5.992 -16.813 -0.14 +0.23    -0.278 OA
DOCKED: BRANCH  21  22
DOCKED: ATOM     22  P   UNL d   1     -13.687   4.474 -16.373 -0.21 -0.01    +0.473 P 
DOCKED: ATOM     23  O   UNL d   1     -14.891   3.644 -16.080 -0.44 -0.17    -0.228 OA
DOCKED: BRANCH  22  24
DOCKED: ATOM     24  O   UNL d   1     -12.767   3.925 -17.550 -0.15 +0.00    -0.303 OA
DOCKED: ATOM     25  H   UNL d   1     -12.961   4.454 -18.365 +0.06 -0.02    +0.222 HD
DOCKED: ENDBRANCH  22  24
DOCKED: BRANCH  22  26
DOCKED: ATOM     26  O   UNL d   1     -12.634   4.631 -15.175 -0.38 +0.06    -0.303 OA
DOCKED: ATOM     27  H   UNL d   1     -12.260   5.536 -15.192 -0.36 -0.19    +0.222 HD
DOCKED: ENDBRANCH  22  26
DOCKED: ENDBRANCH  21  22
DOCKED: ENDBRANCH   6  21
DOCKED: BRANCH   3  28
DOCKED: ATOM     28  O   UNL d   1     -17.536   8.816 -19.848 +0.00 +0.06    -0.278 OA
DOCKED: BRANCH  28  29
DOCKED: ATOM     29  P   UNL d   1     -17.567  10.050 -20.855 +0.01 -0.08    +0.473 P 
DOCKED: ATOM     30  O   UNL d   1     -18.815  10.856 -20.843 +0.00 +0.03    -0.228 OA
DOCKED: BRANCH  29  31
DOCKED: ATOM     31  O   UNL d   1     -16.217  10.795 -20.426 -0.00 +0.09    -0.303 OA
DOCKED: ATOM     32  H   UNL d   1     -15.512  10.119 -20.300 +0.01 -0.09    +0.222 HD
DOCKED: ENDBRANCH  29  31
DOCKED: BRANCH  29  33
DOCKED: ATOM     33  O   UNL d   1     -17.166   9.365 -22.235 +0.00 +0.04    -0.303 OA
DOCKED: ATOM     34  H   UNL d   1     -16.293   8.915 -22.129 +0.00 -0.03    +0.222 HD
DOCKED: ENDBRANCH  29  33
DOCKED: ENDBRANCH  28  29
DOCKED: ENDBRANCH   3  28
DOCKED: BRANCH   5  35
DOCKED: ATOM     35  O   UNL d   1     -14.734   5.143 -19.482 -0.01 +0.04    -0.278 OA
DOCKED: BRANCH  35  36
DOCKED: ATOM     36  P   UNL d   1     -13.505   4.669 -20.382 +0.01 -0.02    +0.473 P 
DOCKED: ATOM     37  O   UNL d   1     -13.094   3.241 -20.212 -0.03 -0.02    -0.228 OA
DOCKED: BRANCH  36  38
DOCKED: ATOM     38  O   UNL d   1     -14.012   5.035 -21.846 +0.00 +0.01    -0.303 OA
DOCKED: ATOM     39  H   UNL d   1     -14.315   5.968 -21.858 +0.01 -0.02    +0.222 HD
DOCKED: ENDBRANCH  36  38
DOCKED: BRANCH  36  40
DOCKED: ATOM     40  O   UNL d   1     -12.408   5.778 -20.070 -0.02 +0.06    -0.303 OA
DOCKED: ATOM     41  H   UNL d   1     -12.812   6.664 -19.937 +0.04 -0.09    +0.222 HD
DOCKED: ENDBRANCH  36  40
DOCKED: ENDBRANCH  35  36
DOCKED: ENDBRANCH   5  35
DOCKED: BRANCH   4  42
DOCKED: ATOM     42  O   UNL d   1     -15.234   7.559 -21.033 -0.00 +0.06    -0.278 OA
DOCKED: BRANCH  42  43
DOCKED: ATOM     43  P   UNL d   1     -13.905   8.442 -21.019 -0.02 -0.18    +0.473 P 
DOCKED: ATOM     44  O   UNL d   1     -13.362   8.843 -19.691 -0.10 +0.22    -0.228 OA
DOCKED: BRANCH  43  45
DOCKED: ATOM     45  O   UNL d   1     -12.901   7.576 -21.899 -0.00 +0.06    -0.303 OA
DOCKED: ATOM     46  H   UNL d   1     -12.698   6.720 -21.472 +0.02 -0.04    +0.222 HD
DOCKED: ENDBRANCH  43  45
DOCKED: BRANCH  43  47
DOCKED: ATOM     47  O   UNL d   1     -14.256   9.647 -22.015 -0.00 +0.07    -0.303 OA
DOCKED: ATOM     48  H   UNL d   1     -15.145   9.996 -21.800 +0.01 -0.05    +0.222 HD
DOCKED: ENDBRANCH  43  47
DOCKED: ENDBRANCH  42  43
DOCKED: ENDBRANCH   4  42
DOCKED: TORSDOF 24
DOCKED: TER
DOCKED: ENDMDL
________________________________________________________________________________


	BEGINNING GENETIC ALGORITHM DOCKING 85 of 100
Run: 85 Seed: 1214811059 126822930 [ Run 85 of 100 GA/GALS ]
Beginning LAMARCKIAN GENETIC ALGORITHM (LGA), with a maximum of 25000000 energy evaluations.

Final-Value: -18.600


	FINAL GENETIC ALGORITHM DOCKED STATE
	_______________________________________________


Detailed state:  trans -12.409 -6.361 -2.152 quatxyzw 0.599555 -0.566666 0.009564 -0.565095 center 0.035 0.082 -0.065 ntor 24 -83.2368 -62.4809 115.1281 147.3756 -56.7678 -133.8771 -113.9001 15.9499 14.2257 58.9547 109.8718 -162.9962 147.9126 80.1974 11.4772 -175.2342 -6.3324 153.6523 -140.7711 17.9233 107.6021 24.2675 153.6251 -16.9893
State:	-12.409  -6.361  -2.152   0.727 -0.687  0.012 -111.182    -83.24  -62.48  115.13  147.38  -56.77 -133.88 -113.90   15.95   14.23   58.95  109.87 -163.00  147.91   80.20   11.48 -175.23   -6.33  153.65 -140.77   17.92  107.60   24.27  153.63  -16.99

DOCKED: MODEL       85
DOCKED: USER    Run = 85
DOCKED: USER    DPF = D:/Protein_go_brrr/autodock/final/mut_D99N/IHP/dock.dpf
DOCKED: USER  
DOCKED: USER    Estimated Free Energy of Binding    =   +1.46 kcal/mol  [=(1)+(2)+(3)-(4)]
DOCKED: USER    
DOCKED: USER    (1) Final Intermolecular Energy     =   -5.70 kcal/mol
DOCKED: USER        vdW + Hbond + desolv Energy     =   -5.42 kcal/mol
DOCKED: USER        Electrostatic Energy            =   -0.28 kcal/mol
DOCKED: USER    (2) Final Total Internal Energy     =  -12.90 kcal/mol
DOCKED: USER    (3) Torsional Free Energy           =   +7.16 kcal/mol
DOCKED: USER    (4) Unbound System's Energy  [=(2)] =  -12.90 kcal/mol
DOCKED: USER    
DOCKED: USER    
DOCKED: USER    NEWDPF move IHP_ideal_opt.pdbqt
DOCKED: USER    NEWDPF about 0.035000 0.082000 -0.065000
DOCKED: USER    NEWDPF tran0 -12.408643 -6.361222 -2.151869
DOCKED: USER    NEWDPF quaternion0 0.599555 -0.566666 0.009564 -0.565095
DOCKED: USER    NEWDPF axisangle0 0.726711 -0.686846 0.011592 -111.182178
DOCKED: USER    NEWDPF quat0 0.726711 -0.686846 0.011592 -111.182178
DOCKED: USER    NEWDPF dihe0 -83.24 -62.48 115.13 147.38 -56.77 -133.88 -113.90 15.95 14.23 58.95 109.87 -163.00 147.91 80.20 11.48 -175.23 -6.33 153.65 -140.77 17.92 107.60 24.27 153.63 -16.99 
DOCKED: USER  keepresnum = 1 
DOCKED: USER  
DOCKED: REMARK  24 active torsions:
DOCKED: REMARK  status: ('A' for Active; 'I' for Inactive)
DOCKED: REMARK    1  A    between atoms: C_1  and  O_7 
DOCKED: REMARK    2  A    between atoms: C_2  and  O_12 
DOCKED: REMARK    3  A    between atoms: C_3  and  O_17 
DOCKED: REMARK    4  A    between atoms: C_4  and  O_22 
DOCKED: REMARK    5  A    between atoms: C_5  and  O_27 
DOCKED: REMARK    6  A    between atoms: C_6  and  O_32 
DOCKED: REMARK    7  A    between atoms: O_7  and  P_8 
DOCKED: REMARK    8  A    between atoms: P_8  and  O_10 
DOCKED: REMARK    9  A    between atoms: P_8  and  O_11 
DOCKED: REMARK   10  A    between atoms: O_12  and  P_13 
DOCKED: REMARK   11  A    between atoms: P_13  and  O_15 
DOCKED: REMARK   12  A    between atoms: P_13  and  O_16 
DOCKED: REMARK   13  A    between atoms: O_17  and  P_18 
DOCKED: REMARK   14  A    between atoms: P_18  and  O_20 
DOCKED: REMARK   15  A    between atoms: P_18  and  O_21 
DOCKED: REMARK   16  A    between atoms: O_22  and  P_23 
DOCKED: REMARK   17  A    between atoms: P_23  and  O_25 
DOCKED: REMARK   18  A    between atoms: P_23  and  O_26 
DOCKED: REMARK   19  A    between atoms: O_27  and  P_28 
DOCKED: REMARK   20  A    between atoms: P_28  and  O_30 
DOCKED: REMARK   21  A    between atoms: P_28  and  O_31 
DOCKED: REMARK   22  A    between atoms: O_32  and  P_33 
DOCKED: REMARK   23  A    between atoms: P_33  and  O_35 
DOCKED: REMARK   24  A    between atoms: P_33  and  O_36 
DOCKED: USER                              x       y       z     vdW  Elec       q    Type
DOCKED: USER                           _______ _______ _______ _____ _____    ______ ____
DOCKED: ROOT
DOCKED: ATOM      1  C   UNL d   1     -11.845  -7.993  -2.213 -0.06 -0.07    +0.194 C 
DOCKED: ATOM      2  C   UNL d   1     -11.504  -7.130  -3.429 -0.10 -0.07    +0.194 C 
DOCKED: ATOM      3  C   UNL d   1     -12.694  -6.273  -3.867 -0.08 -0.02    +0.194 C 
DOCKED: ATOM      4  C   UNL d   1     -13.296  -5.453  -2.728 -0.08 +0.01    +0.194 C 
DOCKED: ATOM      5  C   UNL d   1     -13.546  -6.250  -1.454 -0.03 +0.01    +0.194 C 
DOCKED: ATOM      6  C   UNL d   1     -12.379  -7.155  -1.051 -0.04 -0.01    +0.194 C 
DOCKED: ENDROOT
DOCKED: BRANCH   1   7
DOCKED: ATOM      7  O   UNL d   1     -10.644  -8.626  -1.765 -0.06 +0.26    -0.278 OA
DOCKED: BRANCH   7   8
DOCKED: ATOM      8  P   UNL d   1      -9.832  -7.952  -0.566 -0.09 -0.29    +0.473 P 
DOCKED: ATOM      9  O   UNL d   1      -8.410  -8.373  -0.452 -0.24 +0.23    -0.228 OA
DOCKED: BRANCH   8  10
DOCKED: ATOM     10  O   UNL d   1     -10.006  -6.386  -0.814 -0.15 +0.06    -0.303 OA
DOCKED: ATOM     11  H   UNL d   1     -10.462  -5.982  -0.052 +0.09 +0.01    +0.222 HD
DOCKED: ENDBRANCH   8  10
DOCKED: BRANCH   8  12
DOCKED: ATOM     12  O   UNL d   1     -10.731  -8.186   0.724 -0.05 +0.05    -0.303 OA
DOCKED: ATOM     13  H   UNL d   1     -11.167  -7.364   1.044 +0.06 +0.01    +0.222 HD
DOCKED: ENDBRANCH   8  12
DOCKED: ENDBRANCH   7   8
DOCKED: ENDBRANCH   1   7
DOCKED: BRANCH   2  14
DOCKED: ATOM     14  O   UNL d   1     -10.414  -6.262  -3.095 -0.15 +0.09    -0.278 OA
DOCKED: BRANCH  14  15
DOCKED: ATOM     15  P   UNL d   1      -9.431  -5.855  -4.292 -0.28 -0.15    +0.473 P 
DOCKED: ATOM     16  O   UNL d   1      -9.033  -4.415  -4.374 -0.34 +0.02    -0.228 OA
DOCKED: BRANCH  15  17
DOCKED: ATOM     17  O   UNL d   1      -8.184  -6.831  -4.118 -0.33 +0.21    -0.303 OA
DOCKED: ATOM     18  H   UNL d   1      -8.418  -7.607  -3.573 -0.43 -0.38    +0.222 HD
DOCKED: ENDBRANCH  15  17
DOCKED: BRANCH  15  19
DOCKED: ATOM     19  O   UNL d   1     -10.124  -6.450  -5.594 -0.22 +0.12    -0.303 OA
DOCKED: ATOM     20  H   UNL d   1     -10.764  -5.824  -5.980 -0.22 -0.10    +0.222 HD
DOCKED: ENDBRANCH  15  19
DOCKED: ENDBRANCH  14  15
DOCKED: ENDBRANCH   2  14
DOCKED: BRANCH   6  21
DOCKED: ATOM     21  O   UNL d   1     -12.882  -8.065  -0.075 -0.01 +0.01    -0.278 OA
DOCKED: BRANCH  21  22
DOCKED: ATOM     22  P   UNL d   1     -14.437  -8.066   0.280 +0.01 +0.03    +0.473 P 
DOCKED: ATOM     23  O   UNL d   1     -15.415  -7.937  -0.838 -0.00 -0.01    -0.228 OA
DOCKED: BRANCH  22  24
DOCKED: ATOM     24  O   UNL d   1     -14.574  -9.400   1.137 +0.00 -0.01    -0.303 OA
DOCKED: ATOM     25  H   UNL d   1     -15.251  -9.978   0.701 +0.00 +0.00    +0.222 HD
DOCKED: ENDBRANCH  22  24
DOCKED: BRANCH  22  26
DOCKED: ATOM     26  O   UNL d   1     -14.513  -6.935   1.414 -0.01 -0.08    -0.303 OA
DOCKED: ATOM     27  H   UNL d   1     -14.084  -6.119   1.084 +0.02 +0.09    +0.222 HD
DOCKED: ENDBRANCH  22  26
DOCKED: ENDBRANCH  21  22
DOCKED: ENDBRANCH   6  21
DOCKED: BRANCH   3  28
DOCKED: ATOM     28  O   UNL d   1     -12.212  -5.319  -4.805 -0.17 +0.02    -0.278 OA
DOCKED: BRANCH  28  29
DOCKED: ATOM     29  P   UNL d   1     -13.016  -5.038  -6.151 -0.26 -0.02    +0.473 P 
DOCKED: ATOM     30  O   UNL d   1     -12.732  -3.735  -6.806 -0.82 -0.06    -0.228 OA
DOCKED: BRANCH  29  31
DOCKED: ATOM     31  O   UNL d   1     -12.651  -6.360  -6.976 -0.15 +0.07    -0.303 OA
DOCKED: ATOM     32  H   UNL d   1     -11.677  -6.380  -7.120 -0.45 -0.13    +0.222 HD
DOCKED: ENDBRANCH  29  31
DOCKED: BRANCH  29  33
DOCKED: ATOM     33  O   UNL d   1     -14.520  -5.306  -5.704 -0.09 +0.00    -0.303 OA
DOCKED: ATOM     34  H   UNL d   1     -14.834  -4.544  -5.158 +0.07 +0.02    +0.222 HD
DOCKED: ENDBRANCH  29  33
DOCKED: ENDBRANCH  28  29
DOCKED: ENDBRANCH   3  28
DOCKED: BRANCH   5  35
DOCKED: ATOM     35  O   UNL d   1     -13.706  -5.284  -0.418 -0.04 -0.08    -0.278 OA
DOCKED: BRANCH  35  36
DOCKED: ATOM     36  P   UNL d   1     -12.435  -4.525   0.178 -0.03 +0.25    +0.473 P 
DOCKED: ATOM     37  O   UNL d   1     -11.378  -4.160  -0.815 -0.18 -0.06    -0.228 OA
DOCKED: BRANCH  36  38
DOCKED: ATOM     38  O   UNL d   1     -13.111  -3.279   0.903 -0.16 -0.38    -0.303 OA
DOCKED: ATOM     39  H   UNL d   1     -13.657  -2.787   0.254 +0.06 +0.18    +0.222 HD
DOCKED: ENDBRANCH  36  38
DOCKED: BRANCH  36  40
DOCKED: ATOM     40  O   UNL d   1     -12.002  -5.477   1.376 -0.00 -0.20    -0.303 OA
DOCKED: ATOM     41  H   UNL d   1     -12.400  -6.372   1.292 +0.04 +0.08    +0.222 HD
DOCKED: ENDBRANCH  36  40
DOCKED: ENDBRANCH  35  36
DOCKED: ENDBRANCH   5  35
DOCKED: BRANCH   4  42
DOCKED: ATOM     42  O   UNL d   1     -14.567  -4.980  -3.185 -0.08 -0.02    -0.278 OA
DOCKED: BRANCH  42  43
DOCKED: ATOM     43  P   UNL d   1     -14.896  -3.423  -3.075 -0.13 +0.06    +0.473 P 
DOCKED: ATOM     44  O   UNL d   1     -16.328  -3.018  -3.129 -0.05 -0.02    -0.228 OA
DOCKED: BRANCH  43  45
DOCKED: ATOM     45  O   UNL d   1     -14.151  -3.004  -1.732 -0.13 -0.07    -0.303 OA
DOCKED: ATOM     46  H   UNL d   1     -13.303  -3.480  -1.630 +0.08 +0.05    +0.222 HD
DOCKED: ENDBRANCH  43  45
DOCKED: BRANCH  43  47
DOCKED: ATOM     47  O   UNL d   1     -13.949  -2.769  -4.190 -0.22 -0.05    -0.303 OA
DOCKED: ATOM     48  H   UNL d   1     -13.632  -3.470  -4.796 +0.09 +0.04    +0.222 HD
DOCKED: ENDBRANCH  43  47
DOCKED: ENDBRANCH  42  43
DOCKED: ENDBRANCH   4  42
DOCKED: TORSDOF 24
DOCKED: TER
DOCKED: ENDMDL
________________________________________________________________________________


	BEGINNING GENETIC ALGORITHM DOCKING 86 of 100
Run: 86 Seed: 1686966863 2016082488 [ Run 86 of 100 GA/GALS ]
Beginning LAMARCKIAN GENETIC ALGORITHM (LGA), with a maximum of 25000000 energy evaluations.

Final-Value: -17.427


	FINAL GENETIC ALGORITHM DOCKED STATE
	_______________________________________________


Detailed state:  trans 10.175 12.890 -1.154 quatxyzw 0.613406 0.535248 0.094400 -0.573001 center 0.035 0.082 -0.065 ntor 24 165.0817 166.3709 146.6801 10.6539 13.7726 -35.5183 29.6996 -0.0401 -3.6741 83.3598 109.6828 110.8116 -96.9520 -179.5284 -70.1444 7.0558 -27.9870 105.9727 51.5161 8.8779 -5.0224 -11.7665 174.3301 -21.9703
State:	 10.175  12.890  -1.154   0.748  0.653  0.115 -110.080    165.08  166.37  146.68   10.65   13.77  -35.52   29.70   -0.04   -3.67   83.36  109.68  110.81  -96.95 -179.53  -70.14    7.06  -27.99  105.97   51.52    8.88   -5.02  -11.77  174.33  -21.97

DOCKED: MODEL       86
DOCKED: USER    Run = 86
DOCKED: USER    DPF = D:/Protein_go_brrr/autodock/final/mut_D99N/IHP/dock.dpf
DOCKED: USER  
DOCKED: USER    Estimated Free Energy of Binding    =   +3.73 kcal/mol  [=(1)+(2)+(3)-(4)]
DOCKED: USER    
DOCKED: USER    (1) Final Intermolecular Energy     =   -3.43 kcal/mol
DOCKED: USER        vdW + Hbond + desolv Energy     =   -3.33 kcal/mol
DOCKED: USER        Electrostatic Energy            =   -0.10 kcal/mol
DOCKED: USER    (2) Final Total Internal Energy     =  -14.00 kcal/mol
DOCKED: USER    (3) Torsional Free Energy           =   +7.16 kcal/mol
DOCKED: USER    (4) Unbound System's Energy  [=(2)] =  -14.00 kcal/mol
DOCKED: USER    
DOCKED: USER    
DOCKED: USER    NEWDPF move IHP_ideal_opt.pdbqt
DOCKED: USER    NEWDPF about 0.035000 0.082000 -0.065000
DOCKED: USER    NEWDPF tran0 10.174936 12.890114 -1.153929
DOCKED: USER    NEWDPF quaternion0 0.613406 0.535248 0.094400 -0.573001
DOCKED: USER    NEWDPF axisangle0 0.748463 0.653097 0.115185 -110.080415
DOCKED: USER    NEWDPF quat0 0.748463 0.653097 0.115185 -110.080415
DOCKED: USER    NEWDPF dihe0 165.08 166.37 146.68 10.65 13.77 -35.52 29.70 -0.04 -3.67 83.36 109.68 110.81 -96.95 -179.53 -70.14 7.06 -27.99 105.97 51.52 8.88 -5.02 -11.77 174.33 -21.97 
DOCKED: USER  keepresnum = 1 
DOCKED: USER  
DOCKED: REMARK  24 active torsions:
DOCKED: REMARK  status: ('A' for Active; 'I' for Inactive)
DOCKED: REMARK    1  A    between atoms: C_1  and  O_7 
DOCKED: REMARK    2  A    between atoms: C_2  and  O_12 
DOCKED: REMARK    3  A    between atoms: C_3  and  O_17 
DOCKED: REMARK    4  A    between atoms: C_4  and  O_22 
DOCKED: REMARK    5  A    between atoms: C_5  and  O_27 
DOCKED: REMARK    6  A    between atoms: C_6  and  O_32 
DOCKED: REMARK    7  A    between atoms: O_7  and  P_8 
DOCKED: REMARK    8  A    between atoms: P_8  and  O_10 
DOCKED: REMARK    9  A    between atoms: P_8  and  O_11 
DOCKED: REMARK   10  A    between atoms: O_12  and  P_13 
DOCKED: REMARK   11  A    between atoms: P_13  and  O_15 
DOCKED: REMARK   12  A    between atoms: P_13  and  O_16 
DOCKED: REMARK   13  A    between atoms: O_17  and  P_18 
DOCKED: REMARK   14  A    between atoms: P_18  and  O_20 
DOCKED: REMARK   15  A    between atoms: P_18  and  O_21 
DOCKED: REMARK   16  A    between atoms: O_22  and  P_23 
DOCKED: REMARK   17  A    between atoms: P_23  and  O_25 
DOCKED: REMARK   18  A    between atoms: P_23  and  O_26 
DOCKED: REMARK   19  A    between atoms: O_27  and  P_28 
DOCKED: REMARK   20  A    between atoms: P_28  and  O_30 
DOCKED: REMARK   21  A    between atoms: P_28  and  O_31 
DOCKED: REMARK   22  A    between atoms: O_32  and  P_33 
DOCKED: REMARK   23  A    between atoms: P_33  and  O_35 
DOCKED: REMARK   24  A    between atoms: P_33  and  O_36 
DOCKED: USER                              x       y       z     vdW  Elec       q    Type
DOCKED: USER                           _______ _______ _______ _____ _____    ______ ____
DOCKED: ROOT
DOCKED: ATOM      1  C   UNL d   1      10.777  13.168  -2.749 +0.01 +0.02    +0.194 C 
DOCKED: ATOM      2  C   UNL d   1       9.557  12.251  -2.654 -0.01 +0.03    +0.194 C 
DOCKED: ATOM      3  C   UNL d   1       9.684  11.256  -1.499 -0.06 +0.03    +0.194 C 
DOCKED: ATOM      4  C   UNL d   1      10.011  11.922  -0.165 -0.07 +0.03    +0.194 C 
DOCKED: ATOM      5  C   UNL d   1      11.149  12.931  -0.237 -0.01 +0.01    +0.194 C 
DOCKED: ATOM      6  C   UNL d   1      11.054  13.888  -1.428 +0.00 +0.01    +0.194 C 
DOCKED: ENDROOT
DOCKED: BRANCH   1   7
DOCKED: ATOM      7  O   UNL d   1      10.507  14.171  -3.731 +0.01 -0.03    -0.278 OA
DOCKED: BRANCH   7   8
DOCKED: ATOM      8  P   UNL d   1      10.467  13.737  -5.268 +0.02 +0.05    +0.473 P 
DOCKED: ATOM      9  O   UNL d   1      11.580  12.850  -5.703 +0.01 -0.02    -0.228 OA
DOCKED: BRANCH   8  10
DOCKED: ATOM     10  O   UNL d   1       9.028  13.070  -5.444 -0.01 -0.07    -0.303 OA
DOCKED: ATOM     11  H   UNL d   1       8.507  13.197  -4.629 +0.03 +0.06    +0.222 HD
DOCKED: ENDBRANCH   8  10
DOCKED: BRANCH   8  12
DOCKED: ATOM     12  O   UNL d   1      10.305  15.095  -6.077 +0.00 -0.02    -0.303 OA
DOCKED: ATOM     13  H   UNL d   1      11.037  15.253  -6.715 +0.00 +0.01    +0.222 HD
DOCKED: ENDBRANCH   8  12
DOCKED: ENDBRANCH   7   8
DOCKED: ENDBRANCH   1   7
DOCKED: BRANCH   2  14
DOCKED: ATOM     14  O   UNL d   1       8.387  13.051  -2.441 -0.03 -0.05    -0.278 OA
DOCKED: BRANCH  14  15
DOCKED: ATOM     15  P   UNL d   1       7.062  12.604  -3.220 -0.07 +0.18    +0.473 P 
DOCKED: ATOM     16  O   UNL d   1       6.417  13.633  -4.095 -0.22 -0.07    -0.228 OA
DOCKED: BRANCH  15  17
DOCKED: ATOM     17  O   UNL d   1       7.505  11.301  -4.022 -0.62 -0.23    -0.303 OA
DOCKED: ATOM     18  H   UNL d   1       7.946  10.659  -3.434 +0.07 +0.12    +0.222 HD
DOCKED: ENDBRANCH  15  17
DOCKED: BRANCH  15  19
DOCKED: ATOM     19  O   UNL d   1       6.129  11.982  -2.092 -0.16 -0.08    -0.303 OA
DOCKED: ATOM     20  H   UNL d   1       6.610  11.336  -1.542 +0.09 +0.07    +0.222 HD
DOCKED: ENDBRANCH  15  19
DOCKED: ENDBRANCH  14  15
DOCKED: ENDBRANCH   2  14
DOCKED: BRANCH   6  21
DOCKED: ATOM     21  O   UNL d   1      12.327  14.517  -1.553 +0.00 -0.01    -0.278 OA
DOCKED: BRANCH  21  22
DOCKED: ATOM     22  P   UNL d   1      12.497  16.049  -1.140 +0.00 +0.01    +0.473 P 
DOCKED: ATOM     23  O   UNL d   1      11.404  17.000  -1.495 +0.00 -0.01    -0.228 OA
DOCKED: BRANCH  22  24
DOCKED: ATOM     24  O   UNL d   1      12.802  15.934   0.417 +0.00 -0.01    -0.303 OA
DOCKED: ATOM     25  H   UNL d   1      12.092  15.380   0.831 +0.00 +0.01    +0.222 HD
DOCKED: ENDBRANCH  22  24
DOCKED: BRANCH  22  26
DOCKED: ATOM     26  O   UNL d   1      13.946  16.388  -1.738 +0.00 -0.01    -0.303 OA
DOCKED: ATOM     27  H   UNL d   1      13.981  17.337  -1.977 +0.00 +0.00    +0.222 HD
DOCKED: ENDBRANCH  22  26
DOCKED: ENDBRANCH  21  22
DOCKED: ENDBRANCH   6  21
DOCKED: BRANCH   3  28
DOCKED: ATOM     28  O   UNL d   1       8.412  10.648  -1.316 -0.19 -0.09    -0.278 OA
DOCKED: BRANCH  28  29
DOCKED: ATOM     29  P   UNL d   1       8.111   9.210  -1.933 -0.09 +0.13    +0.473 P 
DOCKED: ATOM     30  O   UNL d   1       9.023   8.778  -3.023 -0.14 -0.07    -0.228 OA
DOCKED: BRANCH  29  31
DOCKED: ATOM     31  O   UNL d   1       8.107   8.329  -0.597 -0.16 -0.01    -0.303 OA
DOCKED: ATOM     32  H   UNL d   1       7.227   8.420  -0.164 -0.40 -0.06    +0.222 HD
DOCKED: ENDBRANCH  29  31
DOCKED: BRANCH  29  33
DOCKED: ATOM     33  O   UNL d   1       6.563   9.317  -2.289 -0.88 -0.15    -0.303 OA
DOCKED: ATOM     34  H   UNL d   1       6.430  10.063  -2.923 +0.09 +0.14    +0.222 HD
DOCKED: ENDBRANCH  29  33
DOCKED: ENDBRANCH  28  29
DOCKED: ENDBRANCH   3  28
DOCKED: BRANCH   5  35
DOCKED: ATOM     35  O   UNL d   1      11.041  13.722   0.945 -0.01 -0.01    -0.278 OA
DOCKED: BRANCH  35  36
DOCKED: ATOM     36  P   UNL d   1       9.676  14.470   1.291 -0.02 +0.02    +0.473 P 
DOCKED: ATOM     37  O   UNL d   1       8.471  13.992   0.545 -0.10 -0.02    -0.228 OA
DOCKED: BRANCH  36  38
DOCKED: ATOM     38  O   UNL d   1       9.588  14.277   2.869 -0.03 -0.01    -0.303 OA
DOCKED: ATOM     39  H   UNL d   1       9.348  13.346   3.066 +0.05 +0.00    +0.222 HD
DOCKED: ENDBRANCH  36  38
DOCKED: BRANCH  36  40
DOCKED: ATOM     40  O   UNL d   1      10.073  16.000   1.115 -0.00 -0.01    -0.303 OA
DOCKED: ATOM     41  H   UNL d   1      10.637  16.141   0.322 +0.01 +0.01    +0.222 HD
DOCKED: ENDBRANCH  36  40
DOCKED: ENDBRANCH  35  36
DOCKED: ENDBRANCH   5  35
DOCKED: BRANCH   4  42
DOCKED: ATOM     42  O   UNL d   1      10.426  10.882   0.727 -0.06 -0.02    -0.278 OA
DOCKED: BRANCH  42  43
DOCKED: ATOM     43  P   UNL d   1       9.814  10.837   2.199 -0.11 +0.02    +0.473 P 
DOCKED: ATOM     44  O   UNL d   1       9.716   9.507   2.862 -0.15 -0.01    -0.228 OA
DOCKED: BRANCH  43  45
DOCKED: ATOM     45  O   UNL d   1      10.712  11.890   2.983 -0.04 -0.01    -0.303 OA
DOCKED: ATOM     46  H   UNL d   1      10.947  12.653   2.417 +0.03 +0.01    +0.222 HD
DOCKED: ENDBRANCH  43  45
DOCKED: BRANCH  43  47
DOCKED: ATOM     47  O   UNL d   1       8.433  11.637   2.046 -0.15 -0.04    -0.303 OA
DOCKED: ATOM     48  H   UNL d   1       8.625  12.587   1.904 +0.05 +0.02    +0.222 HD
DOCKED: ENDBRANCH  43  47
DOCKED: ENDBRANCH  42  43
DOCKED: ENDBRANCH   4  42
DOCKED: TORSDOF 24
DOCKED: TER
DOCKED: ENDMDL
________________________________________________________________________________


	BEGINNING GENETIC ALGORITHM DOCKING 87 of 100
Run: 87 Seed: 988853766 1927636513 [ Run 87 of 100 GA/GALS ]
Beginning LAMARCKIAN GENETIC ALGORITHM (LGA), with a maximum of 25000000 energy evaluations.

Final-Value: -17.583


	FINAL GENETIC ALGORITHM DOCKED STATE
	_______________________________________________


Detailed state:  trans 11.897 -10.278 8.742 quatxyzw -0.173760 -0.032282 0.317467 0.931655 center 0.035 0.082 -0.065 ntor 24 -98.7337 -28.6688 143.3125 -9.9436 164.6923 64.4486 -115.8657 71.8351 75.3840 92.6890 180.0000 -71.6106 92.8180 65.3121 -173.0632 25.5825 -121.4619 0.8736 -37.4206 -39.5702 31.6013 -56.4689 -54.7449 131.6798
State:	 11.897 -10.278   8.742  -0.478 -0.089  0.874 42.612    -98.73  -28.67  143.31   -9.94  164.69   64.45 -115.87   71.84   75.38   92.69  180.00  -71.61   92.82   65.31 -173.06   25.58 -121.46    0.87  -37.42  -39.57   31.60  -56.47  -54.74  131.68

DOCKED: MODEL       87
DOCKED: USER    Run = 87
DOCKED: USER    DPF = D:/Protein_go_brrr/autodock/final/mut_D99N/IHP/dock.dpf
DOCKED: USER  
DOCKED: USER    Estimated Free Energy of Binding    =   +0.48 kcal/mol  [=(1)+(2)+(3)-(4)]
DOCKED: USER    
DOCKED: USER    (1) Final Intermolecular Energy     =   -6.68 kcal/mol
DOCKED: USER        vdW + Hbond + desolv Energy     =   -6.21 kcal/mol
DOCKED: USER        Electrostatic Energy            =   -0.47 kcal/mol
DOCKED: USER    (2) Final Total Internal Energy     =  -10.90 kcal/mol
DOCKED: USER    (3) Torsional Free Energy           =   +7.16 kcal/mol
DOCKED: USER    (4) Unbound System's Energy  [=(2)] =  -10.90 kcal/mol
DOCKED: USER    
DOCKED: USER    
DOCKED: USER    NEWDPF move IHP_ideal_opt.pdbqt
DOCKED: USER    NEWDPF about 0.035000 0.082000 -0.065000
DOCKED: USER    NEWDPF tran0 11.896805 -10.278277 8.742396
DOCKED: USER    NEWDPF quaternion0 -0.173760 -0.032282 0.317467 0.931655
DOCKED: USER    NEWDPF axisangle0 -0.478222 -0.088848 0.873733 42.611551
DOCKED: USER    NEWDPF quat0 -0.478222 -0.088848 0.873733 42.611551
DOCKED: USER    NEWDPF dihe0 -98.73 -28.67 143.31 -9.94 164.69 64.45 -115.87 71.84 75.38 92.69 180.00 -71.61 92.82 65.31 -173.06 25.58 -121.46 0.87 -37.42 -39.57 31.60 -56.47 -54.74 131.68 
DOCKED: USER  keepresnum = 1 
DOCKED: USER  
DOCKED: REMARK  24 active torsions:
DOCKED: REMARK  status: ('A' for Active; 'I' for Inactive)
DOCKED: REMARK    1  A    between atoms: C_1  and  O_7 
DOCKED: REMARK    2  A    between atoms: C_2  and  O_12 
DOCKED: REMARK    3  A    between atoms: C_3  and  O_17 
DOCKED: REMARK    4  A    between atoms: C_4  and  O_22 
DOCKED: REMARK    5  A    between atoms: C_5  and  O_27 
DOCKED: REMARK    6  A    between atoms: C_6  and  O_32 
DOCKED: REMARK    7  A    between atoms: O_7  and  P_8 
DOCKED: REMARK    8  A    between atoms: P_8  and  O_10 
DOCKED: REMARK    9  A    between atoms: P_8  and  O_11 
DOCKED: REMARK   10  A    between atoms: O_12  and  P_13 
DOCKED: REMARK   11  A    between atoms: P_13  and  O_15 
DOCKED: REMARK   12  A    between atoms: P_13  and  O_16 
DOCKED: REMARK   13  A    between atoms: O_17  and  P_18 
DOCKED: REMARK   14  A    between atoms: P_18  and  O_20 
DOCKED: REMARK   15  A    between atoms: P_18  and  O_21 
DOCKED: REMARK   16  A    between atoms: O_22  and  P_23 
DOCKED: REMARK   17  A    between atoms: P_23  and  O_25 
DOCKED: REMARK   18  A    between atoms: P_23  and  O_26 
DOCKED: REMARK   19  A    between atoms: O_27  and  P_28 
DOCKED: REMARK   20  A    between atoms: P_28  and  O_30 
DOCKED: REMARK   21  A    between atoms: P_28  and  O_31 
DOCKED: REMARK   22  A    between atoms: O_32  and  P_33 
DOCKED: REMARK   23  A    between atoms: P_33  and  O_35 
DOCKED: REMARK   24  A    between atoms: P_33  and  O_36 
DOCKED: USER                              x       y       z     vdW  Elec       q    Type
DOCKED: USER                           _______ _______ _______ _____ _____    ______ ____
DOCKED: ROOT
DOCKED: ATOM      1  C   UNL d   1      12.320 -11.933   9.001 -0.05 -0.05    +0.194 C 
DOCKED: ATOM      2  C   UNL d   1      10.860 -11.675   8.624 -0.09 -0.06    +0.194 C 
DOCKED: ATOM      3  C   UNL d   1      10.286 -10.471   9.373 -0.14 -0.08    +0.194 C 
DOCKED: ATOM      4  C   UNL d   1      11.146  -9.216   9.243 -0.20 -0.08    +0.194 C 
DOCKED: ATOM      5  C   UNL d   1      12.629  -9.451   9.498 -0.13 -0.07    +0.194 C 
DOCKED: ATOM      6  C   UNL d   1      13.189 -10.691   8.799 -0.09 -0.07    +0.194 C 
DOCKED: ENDROOT
DOCKED: BRANCH   1   7
DOCKED: ATOM      7  O   UNL d   1      12.829 -12.955   8.140 -0.03 +0.07    -0.278 OA
DOCKED: BRANCH   7   8
DOCKED: ATOM      8  P   UNL d   1      14.131 -13.757   8.602 +0.01 -0.09    +0.473 P 
DOCKED: ATOM      9  O   UNL d   1      14.153 -15.196   8.222 -0.01 +0.03    -0.228 OA
DOCKED: BRANCH   8  10
DOCKED: ATOM     10  O   UNL d   1      15.340 -12.924   7.979 -0.01 +0.07    -0.303 OA
DOCKED: ATOM     11  H   UNL d   1      15.768 -12.396   8.678 +0.03 -0.04    +0.222 HD
DOCKED: ENDBRANCH   8  10
DOCKED: BRANCH   8  12
DOCKED: ATOM     12  O   UNL d   1      14.278 -13.447  10.153 +0.00 +0.04    -0.303 OA
DOCKED: ATOM     13  H   UNL d   1      14.600 -12.536  10.335 +0.01 -0.03    +0.222 HD
DOCKED: ENDBRANCH   8  12
DOCKED: ENDBRANCH   7   8
DOCKED: ENDBRANCH   1   7
DOCKED: BRANCH   2  14
DOCKED: ATOM     14  O   UNL d   1      10.779 -11.419   7.216 -0.18 +0.08    -0.278 OA
DOCKED: BRANCH  14  15
DOCKED: ATOM     15  P   UNL d   1      10.505 -12.683   6.273 -0.12 -0.12    +0.473 P 
DOCKED: ATOM     16  O   UNL d   1       9.275 -12.633   5.423 -0.05 +0.09    -0.228 OA
DOCKED: BRANCH  15  17
DOCKED: ATOM     17  O   UNL d   1      11.842 -12.825   5.417 -0.20 +0.10    -0.303 OA
DOCKED: ATOM     18  H   UNL d   1      12.632 -12.775   5.988 +0.09 -0.09    +0.222 HD
DOCKED: ENDBRANCH  15  17
DOCKED: BRANCH  15  19
DOCKED: ATOM     19  O   UNL d   1      10.616 -13.936   7.247 -0.06 +0.06    -0.303 OA
DOCKED: ATOM     20  H   UNL d   1      11.533 -14.083   7.542 +0.05 -0.04    +0.222 HD
DOCKED: ENDBRANCH  15  19
DOCKED: ENDBRANCH  14  15
DOCKED: ENDBRANCH   2  14
DOCKED: BRANCH   6  21
DOCKED: ATOM     21  O   UNL d   1      14.455 -10.965   9.395 -0.03 +0.06    -0.278 OA
DOCKED: BRANCH  21  22
DOCKED: ATOM     22  P   UNL d   1      15.688  -9.993   9.115 -0.02 -0.09    +0.473 P 
DOCKED: ATOM     23  O   UNL d   1      17.044 -10.598   8.973 -0.02 +0.02    -0.228 OA
DOCKED: BRANCH  22  24
DOCKED: ATOM     24  O   UNL d   1      15.182  -9.183   7.842 -0.12 +0.13    -0.303 OA
DOCKED: ATOM     25  H   UNL d   1      14.826  -8.312   8.153 -0.13 -0.11    +0.222 HD
DOCKED: ENDBRANCH  22  24
DOCKED: BRANCH  22  26
DOCKED: ATOM     26  O   UNL d   1      15.522  -8.910  10.285 -0.02 +0.05    -0.303 OA
DOCKED: ATOM     27  H   UNL d   1      15.240  -8.057   9.896 +0.06 -0.05    +0.222 HD
DOCKED: ENDBRANCH  22  26
DOCKED: ENDBRANCH  21  22
DOCKED: ENDBRANCH   6  21
DOCKED: BRANCH   3  28
DOCKED: ATOM     28  O   UNL d   1       9.043 -10.141   8.765 -0.59 +0.12    -0.278 OA
DOCKED: BRANCH  28  29
DOCKED: ATOM     29  P   UNL d   1       7.909 -11.247   8.602 -0.18 -0.21    +0.473 P 
DOCKED: ATOM     30  O   UNL d   1       8.254 -12.599   9.111 -0.08 +0.07    -0.228 OA
DOCKED: BRANCH  29  31
DOCKED: ATOM     31  O   UNL d   1       6.683 -10.497   9.306 -0.09 +0.32    -0.303 OA
DOCKED: ATOM     32  H   UNL d   1       6.901 -10.364  10.257 -0.41 -0.47    +0.222 HD
DOCKED: ENDBRANCH  29  31
DOCKED: BRANCH  29  33
DOCKED: ATOM     33  O   UNL d   1       7.550 -11.132   7.055 -0.66 +0.08    -0.303 OA
DOCKED: ATOM     34  H   UNL d   1       7.554 -12.036   6.656 -0.39 -0.10    +0.222 HD
DOCKED: ENDBRANCH  29  33
DOCKED: ENDBRANCH  28  29
DOCKED: ENDBRANCH   3  28
DOCKED: BRANCH   5  35
DOCKED: ATOM     35  O   UNL d   1      13.300  -8.320   8.948 -0.09 +0.14    -0.278 OA
DOCKED: BRANCH  35  36
DOCKED: ATOM     36  P   UNL d   1      13.281  -6.921   9.715 -0.17 -0.19    +0.473 P 
DOCKED: ATOM     37  O   UNL d   1      12.011  -6.140   9.601 -0.40 +0.11    -0.228 OA
DOCKED: BRANCH  36  38
DOCKED: ATOM     38  O   UNL d   1      13.649  -7.359  11.201 -0.04 +0.08    -0.303 OA
DOCKED: ATOM     39  H   UNL d   1      13.863  -8.317  11.210 +0.05 -0.05    +0.222 HD
DOCKED: ENDBRANCH  36  38
DOCKED: BRANCH  36  40
DOCKED: ATOM     40  O   UNL d   1      14.607  -6.223   9.182 -0.16 +0.14    -0.303 OA
DOCKED: ATOM     41  H   UNL d   1      14.656  -6.235   8.201 -0.48 -0.17    +0.222 HD
DOCKED: ENDBRANCH  36  40
DOCKED: ENDBRANCH  35  36
DOCKED: ENDBRANCH   5  35
DOCKED: BRANCH   4  42
DOCKED: ATOM     42  O   UNL d   1      10.688  -8.294  10.238 -0.22 +0.16    -0.278 OA
DOCKED: BRANCH  42  43
DOCKED: ATOM     43  P   UNL d   1       9.866  -8.853  11.486 -0.09 -0.42    +0.473 P 
DOCKED: ATOM     44  O   UNL d   1      10.406 -10.055  12.181 -0.04 +0.12    -0.228 OA
DOCKED: BRANCH  43  45
DOCKED: ATOM     45  O   UNL d   1       9.730  -7.569  12.417 -0.12 +0.34    -0.303 OA
DOCKED: ATOM     46  H   UNL d   1       8.819  -7.215  12.407 -0.45 -0.50    +0.222 HD
DOCKED: ENDBRANCH  43  45
DOCKED: BRANCH  43  47
DOCKED: ATOM     47  O   UNL d   1       8.378  -8.997  10.910 +0.05 +0.57    -0.303 OA
DOCKED: ATOM     48  H   UNL d   1       8.170  -9.946  10.786 -0.20 -0.34    +0.222 HD
DOCKED: ENDBRANCH  43  47
DOCKED: ENDBRANCH  42  43
DOCKED: ENDBRANCH   4  42
DOCKED: TORSDOF 24
DOCKED: TER
DOCKED: ENDMDL
________________________________________________________________________________


	BEGINNING GENETIC ALGORITHM DOCKING 88 of 100
Run: 88 Seed: 2115943016 1307754552 [ Run 88 of 100 GA/GALS ]
Beginning LAMARCKIAN GENETIC ALGORITHM (LGA), with a maximum of 25000000 energy evaluations.

Final-Value: -16.641


	FINAL GENETIC ALGORITHM DOCKED STATE
	_______________________________________________


Detailed state:  trans -14.705 12.558 16.733 quatxyzw -0.959551 -0.110624 -0.250413 -0.065701 center 0.035 0.082 -0.065 ntor 24 93.8033 105.9658 16.3388 128.9535 153.9701 85.6553 -31.7965 -134.2870 90.9695 71.1950 25.7811 -176.7651 -69.4829 -76.4930 58.9349 -45.7222 104.7562 151.7345 69.5902 15.9414 178.9938 6.2221 -9.2446 -8.2761
State:	-14.705  12.558  16.733  -0.962 -0.111 -0.251 -172.466     93.80  105.97   16.34  128.95  153.97   85.66  -31.80 -134.29   90.97   71.20   25.78 -176.77  -69.48  -76.49   58.93  -45.72  104.76  151.73   69.59   15.94  178.99    6.22   -9.24   -8.28

DOCKED: MODEL       88
DOCKED: USER    Run = 88
DOCKED: USER    DPF = D:/Protein_go_brrr/autodock/final/mut_D99N/IHP/dock.dpf
DOCKED: USER  
DOCKED: USER    Estimated Free Energy of Binding    =   +4.85 kcal/mol  [=(1)+(2)+(3)-(4)]
DOCKED: USER    
DOCKED: USER    (1) Final Intermolecular Energy     =   -2.30 kcal/mol
DOCKED: USER        vdW + Hbond + desolv Energy     =   -2.10 kcal/mol
DOCKED: USER        Electrostatic Energy            =   -0.21 kcal/mol
DOCKED: USER    (2) Final Total Internal Energy     =  -14.34 kcal/mol
DOCKED: USER    (3) Torsional Free Energy           =   +7.16 kcal/mol
DOCKED: USER    (4) Unbound System's Energy  [=(2)] =  -14.34 kcal/mol
DOCKED: USER    
DOCKED: USER    
DOCKED: USER    NEWDPF move IHP_ideal_opt.pdbqt
DOCKED: USER    NEWDPF about 0.035000 0.082000 -0.065000
DOCKED: USER    NEWDPF tran0 -14.704714 12.558163 16.732916
DOCKED: USER    NEWDPF quaternion0 -0.959551 -0.110624 -0.250413 -0.065701
DOCKED: USER    NEWDPF axisangle0 -0.961629 -0.110864 -0.250956 -172.465830
DOCKED: USER    NEWDPF quat0 -0.961629 -0.110864 -0.250956 -172.465830
DOCKED: USER    NEWDPF dihe0 93.80 105.97 16.34 128.95 153.97 85.66 -31.80 -134.29 90.97 71.20 25.78 -176.77 -69.48 -76.49 58.93 -45.72 104.76 151.73 69.59 15.94 178.99 6.22 -9.24 -8.28 
DOCKED: USER  keepresnum = 1 
DOCKED: USER  
DOCKED: REMARK  24 active torsions:
DOCKED: REMARK  status: ('A' for Active; 'I' for Inactive)
DOCKED: REMARK    1  A    between atoms: C_1  and  O_7 
DOCKED: REMARK    2  A    between atoms: C_2  and  O_12 
DOCKED: REMARK    3  A    between atoms: C_3  and  O_17 
DOCKED: REMARK    4  A    between atoms: C_4  and  O_22 
DOCKED: REMARK    5  A    between atoms: C_5  and  O_27 
DOCKED: REMARK    6  A    between atoms: C_6  and  O_32 
DOCKED: REMARK    7  A    between atoms: O_7  and  P_8 
DOCKED: REMARK    8  A    between atoms: P_8  and  O_10 
DOCKED: REMARK    9  A    between atoms: P_8  and  O_11 
DOCKED: REMARK   10  A    between atoms: O_12  and  P_13 
DOCKED: REMARK   11  A    between atoms: P_13  and  O_15 
DOCKED: REMARK   12  A    between atoms: P_13  and  O_16 
DOCKED: REMARK   13  A    between atoms: O_17  and  P_18 
DOCKED: REMARK   14  A    between atoms: P_18  and  O_20 
DOCKED: REMARK   15  A    between atoms: P_18  and  O_21 
DOCKED: REMARK   16  A    between atoms: O_22  and  P_23 
DOCKED: REMARK   17  A    between atoms: P_23  and  O_25 
DOCKED: REMARK   18  A    between atoms: P_23  and  O_26 
DOCKED: REMARK   19  A    between atoms: O_27  and  P_28 
DOCKED: REMARK   20  A    between atoms: P_28  and  O_30 
DOCKED: REMARK   21  A    between atoms: P_28  and  O_31 
DOCKED: REMARK   22  A    between atoms: O_32  and  P_33 
DOCKED: REMARK   23  A    between atoms: P_33  and  O_35 
DOCKED: REMARK   24  A    between atoms: P_33  and  O_36 
DOCKED: USER                              x       y       z     vdW  Elec       q    Type
DOCKED: USER                           _______ _______ _______ _____ _____    ______ ____
DOCKED: ROOT
DOCKED: ATOM      1  C   UNL d   1     -13.489  13.785  16.731 -0.01 -0.02    +0.194 C 
DOCKED: ATOM      2  C   UNL d   1     -14.919  14.272  16.490 -0.00 -0.02    +0.194 C 
DOCKED: ATOM      3  C   UNL d   1     -15.674  13.354  15.526 -0.01 -0.02    +0.194 C 
DOCKED: ATOM      4  C   UNL d   1     -15.626  11.884  15.933 -0.02 -0.01    +0.194 C 
DOCKED: ATOM      5  C   UNL d   1     -14.232  11.385  16.294 -0.05 -0.01    +0.194 C 
DOCKED: ATOM      6  C   UNL d   1     -13.453  12.333  17.209 -0.02 -0.01    +0.194 C 
DOCKED: ENDROOT
DOCKED: BRANCH   1   7
DOCKED: ATOM      7  O   UNL d   1     -12.913  14.588  17.765 -0.00 +0.02    -0.278 OA
DOCKED: BRANCH   7   8
DOCKED: ATOM      8  P   UNL d   1     -12.952  16.177  17.603 +0.00 -0.04    +0.473 P 
DOCKED: ATOM      9  O   UNL d   1     -13.208  16.664  16.220 -0.00 +0.03    -0.228 OA
DOCKED: BRANCH   8  10
DOCKED: ATOM     10  O   UNL d   1     -14.063  16.644  18.648 +0.00 +0.02    -0.303 OA
DOCKED: ATOM     11  H   UNL d   1     -14.930  16.284  18.387 +0.00 -0.01    +0.222 HD
DOCKED: ENDBRANCH   8  10
DOCKED: BRANCH   8  12
DOCKED: ATOM     12  O   UNL d   1     -11.614  16.694  18.284 -0.00 +0.02    -0.303 OA
DOCKED: ATOM     13  H   UNL d   1     -10.802  16.343  17.855 +0.00 -0.02    +0.222 HD
DOCKED: ENDBRANCH   8  12
DOCKED: ENDBRANCH   7   8
DOCKED: ENDBRANCH   1   7
DOCKED: BRANCH   2  14
DOCKED: ATOM     14  O   UNL d   1     -15.620  14.298  17.739 -0.00 +0.01    -0.278 OA
DOCKED: BRANCH  14  15
DOCKED: ATOM     15  P   UNL d   1     -16.734  15.436  17.911 +0.00 -0.02    +0.473 P 
DOCKED: ATOM     16  O   UNL d   1     -16.620  16.628  17.012 +0.00 +0.01    -0.228 OA
DOCKED: BRANCH  15  17
DOCKED: ATOM     17  O   UNL d   1     -18.113  14.659  17.734 +0.00 +0.01    -0.303 OA
DOCKED: ATOM     18  H   UNL d   1     -18.309  14.501  16.791 +0.00 -0.01    +0.222 HD
DOCKED: ENDBRANCH  15  17
DOCKED: BRANCH  15  19
DOCKED: ATOM     19  O   UNL d   1     -16.742  15.751  19.470 +0.00 +0.01    -0.303 OA
DOCKED: ATOM     20  H   UNL d   1     -15.923  16.199  19.751 +0.00 -0.01    +0.222 HD
DOCKED: ENDBRANCH  15  19
DOCKED: ENDBRANCH  14  15
DOCKED: ENDBRANCH   2  14
DOCKED: BRANCH   6  21
DOCKED: ATOM     21  O   UNL d   1     -12.091  11.914  17.173 -0.05 +0.02    -0.278 OA
DOCKED: BRANCH  21  22
DOCKED: ATOM     22  P   UNL d   1     -11.187  12.267  15.907 -0.10 -0.09    +0.473 P 
DOCKED: ATOM     23  O   UNL d   1     -10.442  13.559  15.912 -0.06 +0.04    -0.228 OA
DOCKED: BRANCH  22  24
DOCKED: ATOM     24  O   UNL d   1     -10.273  10.970  15.787 -0.22 +0.07    -0.303 OA
DOCKED: ATOM     25  H   UNL d   1     -10.750  10.307  15.226 -0.45 -0.09    +0.222 HD
DOCKED: ENDBRANCH  22  24
DOCKED: BRANCH  22  26
DOCKED: ATOM     26  O   UNL d   1     -12.221  12.056  14.700 -0.10 +0.10    -0.303 OA
DOCKED: ATOM     27  H   UNL d   1     -12.190  11.122  14.410 -0.31 -0.15    +0.222 HD
DOCKED: ENDBRANCH  22  26
DOCKED: ENDBRANCH  21  22
DOCKED: ENDBRANCH   6  21
DOCKED: BRANCH   3  28
DOCKED: ATOM     28  O   UNL d   1     -17.048  13.715  15.579 -0.00 +0.02    -0.278 OA
DOCKED: BRANCH  28  29
DOCKED: ATOM     29  P   UNL d   1     -17.781  14.286  14.285 +0.00 -0.05    +0.473 P 
DOCKED: ATOM     30  O   UNL d   1     -17.393  15.663  13.884 -0.00 +0.03    -0.228 OA
DOCKED: BRANCH  29  31
DOCKED: ATOM     31  O   UNL d   1     -17.466  13.111  13.245 -0.00 +0.05    -0.303 OA
DOCKED: ATOM     32  H   UNL d   1     -17.230  12.299  13.751 +0.02 -0.02    +0.222 HD
DOCKED: ENDBRANCH  29  31
DOCKED: BRANCH  29  33
DOCKED: ATOM     33  O   UNL d   1     -19.315  14.044  14.636 +0.00 +0.02    -0.303 OA
DOCKED: ATOM     34  H   UNL d   1     -19.520  13.082  14.532 +0.00 -0.01    +0.222 HD
DOCKED: ENDBRANCH  29  33
DOCKED: ENDBRANCH  28  29
DOCKED: ENDBRANCH   3  28
DOCKED: BRANCH   5  35
DOCKED: ATOM     35  O   UNL d   1     -14.431  10.172  17.018 -0.03 -0.01    -0.278 OA
DOCKED: BRANCH  35  36
DOCKED: ATOM     36  P   UNL d   1     -13.790   8.809  16.494 -0.14 +0.09    +0.473 P 
DOCKED: ATOM     37  O   UNL d   1     -13.417   7.822  17.554 -0.12 -0.08    -0.228 OA
DOCKED: BRANCH  36  38
DOCKED: ATOM     38  O   UNL d   1     -14.905   8.292  15.481 -0.13 -0.08    -0.303 OA
DOCKED: ATOM     39  H   UNL d   1     -15.465   9.050  15.207 +0.05 +0.03    +0.222 HD
DOCKED: ENDBRANCH  36  38
DOCKED: BRANCH  36  40
DOCKED: ATOM     40  O   UNL d   1     -12.622   9.325  15.545 -0.20 -0.00    -0.303 OA
DOCKED: ATOM     41  H   UNL d   1     -12.269  10.193  15.841 -0.15 -0.03    +0.222 HD
DOCKED: ENDBRANCH  36  40
DOCKED: ENDBRANCH  35  36
DOCKED: ENDBRANCH   5  35
DOCKED: BRANCH   4  42
DOCKED: ATOM     42  O   UNL d   1     -16.064  11.125  14.801 -0.02 +0.01    -0.278 OA
DOCKED: BRANCH  42  43
DOCKED: ATOM     43  P   UNL d   1     -17.362  10.209  14.941 +0.01 +0.01    +0.473 P 
DOCKED: ATOM     44  O   UNL d   1     -17.567   9.147  13.917 -0.02 -0.02    -0.228 OA
DOCKED: BRANCH  43  45
DOCKED: ATOM     45  O   UNL d   1     -17.243   9.661  16.431 -0.00 -0.02    -0.303 OA
DOCKED: ATOM     46  H   UNL d   1     -16.343   9.328  16.619 +0.03 +0.02    +0.222 HD
DOCKED: ENDBRANCH  43  45
DOCKED: BRANCH  43  47
DOCKED: ATOM     47  O   UNL d   1     -18.550  11.276  15.080 -0.00 +0.00    -0.303 OA
DOCKED: ATOM     48  H   UNL d   1     -18.181  12.180  15.008 +0.01 -0.01    +0.222 HD
DOCKED: ENDBRANCH  43  47
DOCKED: ENDBRANCH  42  43
DOCKED: ENDBRANCH   4  42
DOCKED: TORSDOF 24
DOCKED: TER
DOCKED: ENDMDL
________________________________________________________________________________


	BEGINNING GENETIC ALGORITHM DOCKING 89 of 100
Run: 89 Seed: 1660111511 2104138528 [ Run 89 of 100 GA/GALS ]
Beginning LAMARCKIAN GENETIC ALGORITHM (LGA), with a maximum of 25000000 energy evaluations.

Final-Value: -18.813


	FINAL GENETIC ALGORITHM DOCKED STATE
	_______________________________________________


Detailed state:  trans 14.019 1.710 3.388 quatxyzw 0.598076 -0.282360 0.427589 0.616235 center 0.035 0.082 -0.065 ntor 24 -91.9714 22.8401 -172.6243 -11.2134 24.6215 -135.2051 20.4617 -108.3780 -177.4480 26.0126 179.8699 178.6163 58.2049 180.0000 -51.0584 -104.8439 95.0318 159.6259 27.4098 19.3635 -179.1122 25.3875 10.4248 -179.0334
State:	 14.019   1.710   3.388   0.759 -0.359  0.543 103.917    -91.97   22.84 -172.62  -11.21   24.62 -135.21   20.46 -108.38 -177.45   26.01  179.87  178.62   58.20  180.00  -51.06 -104.84   95.03  159.63   27.41   19.36 -179.11   25.39   10.42 -179.03

DOCKED: MODEL       89
DOCKED: USER    Run = 89
DOCKED: USER    DPF = D:/Protein_go_brrr/autodock/final/mut_D99N/IHP/dock.dpf
DOCKED: USER  
DOCKED: USER    Estimated Free Energy of Binding    =   +2.74 kcal/mol  [=(1)+(2)+(3)-(4)]
DOCKED: USER    
DOCKED: USER    (1) Final Intermolecular Energy     =   -4.42 kcal/mol
DOCKED: USER        vdW + Hbond + desolv Energy     =   -4.35 kcal/mol
DOCKED: USER        Electrostatic Energy            =   -0.07 kcal/mol
DOCKED: USER    (2) Final Total Internal Energy     =  -14.40 kcal/mol
DOCKED: USER    (3) Torsional Free Energy           =   +7.16 kcal/mol
DOCKED: USER    (4) Unbound System's Energy  [=(2)] =  -14.40 kcal/mol
DOCKED: USER    
DOCKED: USER    
DOCKED: USER    NEWDPF move IHP_ideal_opt.pdbqt
DOCKED: USER    NEWDPF about 0.035000 0.082000 -0.065000
DOCKED: USER    NEWDPF tran0 14.018623 1.710367 3.387727
DOCKED: USER    NEWDPF quaternion0 0.598076 -0.282360 0.427589 0.616235
DOCKED: USER    NEWDPF axisangle0 0.759401 -0.358524 0.542927 103.916629
DOCKED: USER    NEWDPF quat0 0.759401 -0.358524 0.542927 103.916629
DOCKED: USER    NEWDPF dihe0 -91.97 22.84 -172.62 -11.21 24.62 -135.21 20.46 -108.38 -177.45 26.01 179.87 178.62 58.20 180.00 -51.06 -104.84 95.03 159.63 27.41 19.36 -179.11 25.39 10.42 -179.03 
DOCKED: USER  keepresnum = 1 
DOCKED: USER  
DOCKED: REMARK  24 active torsions:
DOCKED: REMARK  status: ('A' for Active; 'I' for Inactive)
DOCKED: REMARK    1  A    between atoms: C_1  and  O_7 
DOCKED: REMARK    2  A    between atoms: C_2  and  O_12 
DOCKED: REMARK    3  A    between atoms: C_3  and  O_17 
DOCKED: REMARK    4  A    between atoms: C_4  and  O_22 
DOCKED: REMARK    5  A    between atoms: C_5  and  O_27 
DOCKED: REMARK    6  A    between atoms: C_6  and  O_32 
DOCKED: REMARK    7  A    between atoms: O_7  and  P_8 
DOCKED: REMARK    8  A    between atoms: P_8  and  O_10 
DOCKED: REMARK    9  A    between atoms: P_8  and  O_11 
DOCKED: REMARK   10  A    between atoms: O_12  and  P_13 
DOCKED: REMARK   11  A    between atoms: P_13  and  O_15 
DOCKED: REMARK   12  A    between atoms: P_13  and  O_16 
DOCKED: REMARK   13  A    between atoms: O_17  and  P_18 
DOCKED: REMARK   14  A    between atoms: P_18  and  O_20 
DOCKED: REMARK   15  A    between atoms: P_18  and  O_21 
DOCKED: REMARK   16  A    between atoms: O_22  and  P_23 
DOCKED: REMARK   17  A    between atoms: P_23  and  O_25 
DOCKED: REMARK   18  A    between atoms: P_23  and  O_26 
DOCKED: REMARK   19  A    between atoms: O_27  and  P_28 
DOCKED: REMARK   20  A    between atoms: P_28  and  O_30 
DOCKED: REMARK   21  A    between atoms: P_28  and  O_31 
DOCKED: REMARK   22  A    between atoms: O_32  and  P_33 
DOCKED: REMARK   23  A    between atoms: P_33  and  O_35 
DOCKED: REMARK   24  A    between atoms: P_33  and  O_36 
DOCKED: USER                              x       y       z     vdW  Elec       q    Type
DOCKED: USER                           _______ _______ _______ _____ _____    ______ ____
DOCKED: ROOT
DOCKED: ATOM      1  C   UNL d   1      15.125   1.091   4.561 -0.17 +0.00    +0.194 C 
DOCKED: ATOM      2  C   UNL d   1      14.063   2.052   5.097 -0.16 +0.01    +0.194 C 
DOCKED: ATOM      3  C   UNL d   1      13.871   3.257   4.173 -0.12 +0.02    +0.194 C 
DOCKED: ATOM      4  C   UNL d   1      13.614   2.865   2.720 -0.11 +0.01    +0.194 C 
DOCKED: ATOM      5  C   UNL d   1      14.581   1.821   2.178 -0.19 +0.00    +0.194 C 
DOCKED: ATOM      6  C   UNL d   1      14.821   0.646   3.129 -0.12 -0.00    +0.194 C 
DOCKED: ENDROOT
DOCKED: BRANCH   1   7
DOCKED: ATOM      7  O   UNL d   1      15.122  -0.080   5.380 -0.24 -0.00    -0.278 OA
DOCKED: BRANCH   7   8
DOCKED: ATOM      8  P   UNL d   1      16.166  -0.166   6.586 -0.11 +0.03    +0.473 P 
DOCKED: ATOM      9  O   UNL d   1      15.570  -0.070   7.946 -0.57 -0.06    -0.228 OA
DOCKED: BRANCH   8  10
DOCKED: ATOM     10  O   UNL d   1      16.936  -1.541   6.334 -0.16 +0.01    -0.303 OA
DOCKED: ATOM     11  H   UNL d   1      17.854  -1.356   6.063 +0.06 -0.00    +0.222 HD
DOCKED: ENDBRANCH   8  10
DOCKED: BRANCH   8  12
DOCKED: ATOM     12  O   UNL d   1      17.284   0.909   6.241 -0.02 -0.01    -0.303 OA
DOCKED: ATOM     13  H   UNL d   1      17.325   1.129   5.283 +0.04 +0.00    +0.222 HD
DOCKED: ENDBRANCH   8  12
DOCKED: ENDBRANCH   7   8
DOCKED: ENDBRANCH   1   7
DOCKED: BRANCH   2  14
DOCKED: ATOM     14  O   UNL d   1      12.816   1.356   5.206 -0.27 -0.01    -0.278 OA
DOCKED: BRANCH  14  15
DOCKED: ATOM     15  P   UNL d   1      11.809   1.865   6.343 -0.25 +0.15    +0.473 P 
DOCKED: ATOM     16  O   UNL d   1      11.341   0.843   7.332 -0.35 -0.08    -0.228 OA
DOCKED: BRANCH  15  17
DOCKED: ATOM     17  O   UNL d   1      12.579   3.080   7.027 -0.12 -0.13    -0.303 OA
DOCKED: ATOM     18  H   UNL d   1      12.349   3.927   6.600 +0.07 +0.09    +0.222 HD
DOCKED: ENDBRANCH  15  17
DOCKED: BRANCH  15  19
DOCKED: ATOM     19  O   UNL d   1      10.660   2.623   5.545 -0.30 -0.12    -0.303 OA
DOCKED: ATOM     20  H   UNL d   1      10.977   3.466   5.172 +0.11 +0.08    +0.222 HD
DOCKED: ENDBRANCH  15  19
DOCKED: ENDBRANCH  14  15
DOCKED: ENDBRANCH   2  14
DOCKED: BRANCH   6  21
DOCKED: ATOM     21  O   UNL d   1      15.974  -0.042   2.651 -0.13 +0.00    -0.278 OA
DOCKED: BRANCH  21  22
DOCKED: ATOM     22  P   UNL d   1      17.428   0.543   2.952 -0.02 -0.00    +0.473 P 
DOCKED: ATOM     23  O   UNL d   1      17.548   1.990   3.293 -0.01 -0.00    -0.228 OA
DOCKED: BRANCH  22  24
DOCKED: ATOM     24  O   UNL d   1      17.954  -0.454   4.075 -0.03 +0.00    -0.303 OA
DOCKED: ATOM     25  H   UNL d   1      17.208  -0.634   4.702 +0.07 -0.01    +0.222 HD
DOCKED: ENDBRANCH  22  24
DOCKED: BRANCH  22  26
DOCKED: ATOM     26  O   UNL d   1      18.248   0.054   1.664 -0.02 +0.01    -0.303 OA
DOCKED: ATOM     27  H   UNL d   1      17.757   0.305   0.855 +0.05 -0.01    +0.222 HD
DOCKED: ENDBRANCH  22  26
DOCKED: ENDBRANCH  21  22
DOCKED: ENDBRANCH   6  21
DOCKED: BRANCH   3  28
DOCKED: ATOM     28  O   UNL d   1      12.695   3.936   4.595 -0.11 -0.04    -0.278 OA
DOCKED: BRANCH  28  29
DOCKED: ATOM     29  P   UNL d   1      12.680   5.525   4.706 -0.03 +0.06    +0.473 P 
DOCKED: ATOM     30  O   UNL d   1      12.148   6.073   5.980 -0.04 -0.05    -0.228 OA
DOCKED: BRANCH  29  31
DOCKED: ATOM     31  O   UNL d   1      14.210   5.843   4.361 -0.01 -0.02    -0.303 OA
DOCKED: ATOM     32  H   UNL d   1      14.355   5.683   3.400 +0.02 +0.01    +0.222 HD
DOCKED: ENDBRANCH  29  31
DOCKED: BRANCH  29  33
DOCKED: ATOM     33  O   UNL d   1      11.924   5.946   3.370 -0.06 -0.02    -0.303 OA
DOCKED: ATOM     34  H   UNL d   1      12.335   5.473   2.605 -0.02 +0.01    +0.222 HD
DOCKED: ENDBRANCH  29  33
DOCKED: ENDBRANCH  28  29
DOCKED: ENDBRANCH   3  28
DOCKED: BRANCH   5  35
DOCKED: ATOM     35  O   UNL d   1      13.964   1.293   1.006 -0.24 -0.00    -0.278 OA
DOCKED: BRANCH  35  36
DOCKED: ATOM     36  P   UNL d   1      14.842   0.952  -0.282 -0.16 -0.02    +0.473 P 
DOCKED: ATOM     37  O   UNL d   1      14.479  -0.312  -0.993 -0.33 +0.03    -0.228 OA
DOCKED: BRANCH  36  38
DOCKED: ATOM     38  O   UNL d   1      14.661   2.271  -1.157 -0.21 -0.01    -0.303 OA
DOCKED: ATOM     39  H   UNL d   1      15.520   2.743  -1.207 +0.04 +0.01    +0.222 HD
DOCKED: ENDBRANCH  36  38
DOCKED: BRANCH  36  40
DOCKED: ATOM     40  O   UNL d   1      16.326   1.065   0.279 -0.08 +0.01    -0.303 OA
DOCKED: ATOM     41  H   UNL d   1      16.354   1.535   1.142 +0.06 -0.00    +0.222 HD
DOCKED: ENDBRANCH  36  40
DOCKED: ENDBRANCH  35  36
DOCKED: ENDBRANCH   5  35
DOCKED: BRANCH   4  42
DOCKED: ATOM     42  O   UNL d   1      13.789   4.049   1.935 -0.09 -0.01    -0.278 OA
DOCKED: BRANCH  42  43
DOCKED: ATOM     43  P   UNL d   1      15.257   4.650   1.762 -0.02 +0.01    +0.473 P 
DOCKED: ATOM     44  O   UNL d   1      15.373   6.107   1.472 -0.01 -0.01    -0.228 OA
DOCKED: BRANCH  43  45
DOCKED: ATOM     45  O   UNL d   1      15.981   4.193   3.103 -0.01 -0.01    -0.303 OA
DOCKED: ATOM     46  H   UNL d   1      16.621   3.472   2.937 +0.02 +0.00    +0.222 HD
DOCKED: ENDBRANCH  43  45
DOCKED: BRANCH  43  47
DOCKED: ATOM     47  O   UNL d   1      15.927   3.674   0.681 -0.02 -0.00    -0.303 OA
DOCKED: ATOM     48  H   UNL d   1      15.292   2.965   0.449 +0.05 +0.00    +0.222 HD
DOCKED: ENDBRANCH  43  47
DOCKED: ENDBRANCH  42  43
DOCKED: ENDBRANCH   4  42
DOCKED: TORSDOF 24
DOCKED: TER
DOCKED: ENDMDL
________________________________________________________________________________


	BEGINNING GENETIC ALGORITHM DOCKING 90 of 100
Run: 90 Seed: 985851 651612448 [ Run 90 of 100 GA/GALS ]
Beginning LAMARCKIAN GENETIC ALGORITHM (LGA), with a maximum of 25000000 energy evaluations.

Final-Value: -17.126


	FINAL GENETIC ALGORITHM DOCKED STATE
	_______________________________________________


Detailed state:  trans -6.893 15.636 -13.151 quatxyzw -0.405196 -0.084166 0.761678 -0.498577 center 0.035 0.082 -0.065 ntor 24 104.4789 11.1776 23.9771 121.5610 88.6783 145.7452 -89.5182 -14.1858 147.2330 91.3680 -125.9724 -168.0603 166.8748 -63.6782 48.6048 163.3861 76.3834 158.5727 59.3926 16.7922 -171.0654 18.7282 19.2975 -175.3897
State:	 -6.893  15.636 -13.151  -0.467 -0.097  0.879 -120.188    104.48   11.18   23.98  121.56   88.68  145.75  -89.52  -14.19  147.23   91.37 -125.97 -168.06  166.87  -63.68   48.60  163.39   76.38  158.57   59.39   16.79 -171.07   18.73   19.30 -175.39

DOCKED: MODEL       90
DOCKED: USER    Run = 90
DOCKED: USER    DPF = D:/Protein_go_brrr/autodock/final/mut_D99N/IHP/dock.dpf
DOCKED: USER  
DOCKED: USER    Estimated Free Energy of Binding    =   +4.03 kcal/mol  [=(1)+(2)+(3)-(4)]
DOCKED: USER    
DOCKED: USER    (1) Final Intermolecular Energy     =   -3.13 kcal/mol
DOCKED: USER        vdW + Hbond + desolv Energy     =   -3.00 kcal/mol
DOCKED: USER        Electrostatic Energy            =   -0.13 kcal/mol
DOCKED: USER    (2) Final Total Internal Energy     =  -13.99 kcal/mol
DOCKED: USER    (3) Torsional Free Energy           =   +7.16 kcal/mol
DOCKED: USER    (4) Unbound System's Energy  [=(2)] =  -13.99 kcal/mol
DOCKED: USER    
DOCKED: USER    
DOCKED: USER    NEWDPF move IHP_ideal_opt.pdbqt
DOCKED: USER    NEWDPF about 0.035000 0.082000 -0.065000
DOCKED: USER    NEWDPF tran0 -6.893194 15.636214 -13.151095
DOCKED: USER    NEWDPF quaternion0 -0.405196 -0.084166 0.761678 -0.498577
DOCKED: USER    NEWDPF axisangle0 -0.467438 -0.097094 0.878678 -120.188194
DOCKED: USER    NEWDPF quat0 -0.467438 -0.097094 0.878678 -120.188194
DOCKED: USER    NEWDPF dihe0 104.48 11.18 23.98 121.56 88.68 145.75 -89.52 -14.19 147.23 91.37 -125.97 -168.06 166.87 -63.68 48.60 163.39 76.38 158.57 59.39 16.79 -171.07 18.73 19.30 -175.39 
DOCKED: USER  keepresnum = 1 
DOCKED: USER  
DOCKED: REMARK  24 active torsions:
DOCKED: REMARK  status: ('A' for Active; 'I' for Inactive)
DOCKED: REMARK    1  A    between atoms: C_1  and  O_7 
DOCKED: REMARK    2  A    between atoms: C_2  and  O_12 
DOCKED: REMARK    3  A    between atoms: C_3  and  O_17 
DOCKED: REMARK    4  A    between atoms: C_4  and  O_22 
DOCKED: REMARK    5  A    between atoms: C_5  and  O_27 
DOCKED: REMARK    6  A    between atoms: C_6  and  O_32 
DOCKED: REMARK    7  A    between atoms: O_7  and  P_8 
DOCKED: REMARK    8  A    between atoms: P_8  and  O_10 
DOCKED: REMARK    9  A    between atoms: P_8  and  O_11 
DOCKED: REMARK   10  A    between atoms: O_12  and  P_13 
DOCKED: REMARK   11  A    between atoms: P_13  and  O_15 
DOCKED: REMARK   12  A    between atoms: P_13  and  O_16 
DOCKED: REMARK   13  A    between atoms: O_17  and  P_18 
DOCKED: REMARK   14  A    between atoms: P_18  and  O_20 
DOCKED: REMARK   15  A    between atoms: P_18  and  O_21 
DOCKED: REMARK   16  A    between atoms: O_22  and  P_23 
DOCKED: REMARK   17  A    between atoms: P_23  and  O_25 
DOCKED: REMARK   18  A    between atoms: P_23  and  O_26 
DOCKED: REMARK   19  A    between atoms: O_27  and  P_28 
DOCKED: REMARK   20  A    between atoms: P_28  and  O_30 
DOCKED: REMARK   21  A    between atoms: P_28  and  O_31 
DOCKED: REMARK   22  A    between atoms: O_32  and  P_33 
DOCKED: REMARK   23  A    between atoms: P_33  and  O_35 
DOCKED: REMARK   24  A    between atoms: P_33  and  O_36 
DOCKED: USER                              x       y       z     vdW  Elec       q    Type
DOCKED: USER                           _______ _______ _______ _____ _____    ______ ____
DOCKED: ROOT
DOCKED: ATOM      1  C   UNL d   1      -7.053  17.325 -12.827 +0.00 -0.01    +0.194 C 
DOCKED: ATOM      2  C   UNL d   1      -6.020  16.584 -11.976 -0.00 -0.01    +0.194 C 
DOCKED: ATOM      3  C   UNL d   1      -6.550  15.232 -11.493 -0.03 -0.01    +0.194 C 
DOCKED: ATOM      4  C   UNL d   1      -7.099  14.363 -12.622 -0.09 -0.02    +0.194 C 
DOCKED: ATOM      5  C   UNL d   1      -8.046  15.095 -13.565 -0.06 -0.02    +0.194 C 
DOCKED: ATOM      6  C   UNL d   1      -7.543  16.474 -13.998 -0.01 -0.01    +0.194 C 
DOCKED: ENDROOT
DOCKED: BRANCH   1   7
DOCKED: ATOM      7  O   UNL d   1      -6.426  18.487 -13.377 +0.00 +0.01    -0.278 OA
DOCKED: BRANCH   7   8
DOCKED: ATOM      8  P   UNL d   1      -5.900  19.613 -12.373 +0.00 -0.01    +0.473 P 
DOCKED: ATOM      9  O   UNL d   1      -6.100  21.013 -12.836 +0.00 +0.00    -0.228 OA
DOCKED: BRANCH   8  10
DOCKED: ATOM     10  O   UNL d   1      -6.652  19.291 -11.003 +0.00 +0.00    -0.303 OA
DOCKED: ATOM     11  H   UNL d   1      -7.613  19.239 -11.162 +0.00 -0.00    +0.222 HD
DOCKED: ENDBRANCH   8  10
DOCKED: BRANCH   8  12
DOCKED: ATOM     12  O   UNL d   1      -4.404  19.200 -12.036 +0.00 +0.00    -0.303 OA
DOCKED: ATOM     13  H   UNL d   1      -4.269  18.226 -12.006 +0.00 -0.00    +0.222 HD
DOCKED: ENDBRANCH   8  12
DOCKED: ENDBRANCH   7   8
DOCKED: ENDBRANCH   1   7
DOCKED: BRANCH   2  14
DOCKED: ATOM     14  O   UNL d   1      -4.843  16.358 -12.761 -0.00 +0.01    -0.278 OA
DOCKED: BRANCH  14  15
DOCKED: ATOM     15  P   UNL d   1      -3.449  16.343 -11.973 +0.01 -0.01    +0.473 P 
DOCKED: ATOM     16  O   UNL d   1      -3.487  16.751 -10.533 -0.01 +0.00    -0.228 OA
DOCKED: BRANCH  15  17
DOCKED: ATOM     17  O   UNL d   1      -2.902  14.862 -12.181 -0.00 +0.01    -0.303 OA
DOCKED: ATOM     18  H   UNL d   1      -3.422  14.219 -11.661 +0.04 -0.01    +0.222 HD
DOCKED: ENDBRANCH  15  17
DOCKED: BRANCH  15  19
DOCKED: ATOM     19  O   UNL d   1      -2.462  17.181 -12.897 +0.00 +0.01    -0.303 OA
DOCKED: ATOM     20  H   UNL d   1      -2.763  18.102 -13.005 +0.00 -0.00    +0.222 HD
DOCKED: ENDBRANCH  15  19
DOCKED: ENDBRANCH  14  15
DOCKED: ENDBRANCH   2  14
DOCKED: BRANCH   6  21
DOCKED: ATOM     21  O   UNL d   1      -8.656  17.156 -14.573 -0.00 +0.02    -0.278 OA
DOCKED: BRANCH  21  22
DOCKED: ATOM     22  P   UNL d   1      -9.651  17.979 -13.636 +0.00 -0.03    +0.473 P 
DOCKED: ATOM     23  O   UNL d   1      -9.225  19.331 -13.173 -0.00 +0.01    -0.228 OA
DOCKED: BRANCH  22  24
DOCKED: ATOM     24  O   UNL d   1     -10.994  17.958 -14.490 +0.00 +0.03    -0.303 OA
DOCKED: ATOM     25  H   UNL d   1     -10.953  17.187 -15.111 +0.01 -0.03    +0.222 HD
DOCKED: ENDBRANCH  22  24
DOCKED: BRANCH  22  26
DOCKED: ATOM     26  O   UNL d   1      -9.973  16.911 -12.486 -0.00 +0.03    -0.303 OA
DOCKED: ATOM     27  H   UNL d   1      -9.895  16.007 -12.854 +0.03 -0.03    +0.222 HD
DOCKED: ENDBRANCH  22  26
DOCKED: ENDBRANCH  21  22
DOCKED: ENDBRANCH   6  21
DOCKED: BRANCH   3  28
DOCKED: ATOM     28  O   UNL d   1      -5.450  14.506 -10.960 -0.04 +0.01    -0.278 OA
DOCKED: BRANCH  28  29
DOCKED: ATOM     29  P   UNL d   1      -5.547  13.845  -9.514 -0.12 -0.01    +0.473 P 
DOCKED: ATOM     30  O   UNL d   1      -4.989  12.473  -9.398 -0.18 -0.01    -0.228 OA
DOCKED: BRANCH  29  31
DOCKED: ATOM     31  O   UNL d   1      -4.851  14.989  -8.637 -0.13 +0.01    -0.303 OA
DOCKED: ATOM     32  H   UNL d   1      -4.102  15.368  -9.152 +0.05 -0.01    +0.222 HD
DOCKED: ENDBRANCH  29  31
DOCKED: BRANCH  29  33
DOCKED: ATOM     33  O   UNL d   1      -7.090  14.026  -9.167 -0.13 -0.00    -0.303 OA
DOCKED: ATOM     34  H   UNL d   1      -7.629  13.775  -9.957 +0.09 -0.01    +0.222 HD
DOCKED: ENDBRANCH  29  33
DOCKED: ENDBRANCH  28  29
DOCKED: ENDBRANCH   3  28
DOCKED: BRANCH   5  35
DOCKED: ATOM     35  O   UNL d   1      -8.124  14.289 -14.738 -0.16 +0.04    -0.278 OA
DOCKED: BRANCH  35  36
DOCKED: ATOM     36  P   UNL d   1      -9.454  14.276 -15.618 -0.11 -0.11    +0.473 P 
DOCKED: ATOM     37  O   UNL d   1      -9.289  14.703 -17.042 -0.05 +0.04    -0.228 OA
DOCKED: BRANCH  36  38
DOCKED: ATOM     38  O   UNL d   1      -9.950  12.774 -15.439 -0.65 +0.14    -0.303 OA
DOCKED: ATOM     39  H   UNL d   1     -10.370  12.677 -14.557 -0.52 -0.19    +0.222 HD
DOCKED: ENDBRANCH  36  38
DOCKED: BRANCH  36  40
DOCKED: ATOM     40  O   UNL d   1     -10.462  15.121 -14.724 -0.04 +0.07    -0.303 OA
DOCKED: ATOM     41  H   UNL d   1     -10.065  15.972 -14.432 +0.03 -0.04    +0.222 HD
DOCKED: ENDBRANCH  36  40
DOCKED: ENDBRANCH  35  36
DOCKED: ENDBRANCH   5  35
DOCKED: BRANCH   4  42
DOCKED: ATOM     42  O   UNL d   1      -7.849  13.309 -12.008 -0.17 +0.05    -0.278 OA
DOCKED: BRANCH  42  43
DOCKED: ATOM     43  P   UNL d   1      -9.269  13.647 -11.365 -0.12 -0.10    +0.473 P 
DOCKED: ATOM     44  O   UNL d   1      -9.768  12.745 -10.290 -0.24 +0.03    -0.228 OA
DOCKED: BRANCH  43  45
DOCKED: ATOM     45  O   UNL d   1      -9.098  15.164 -10.915 -0.03 +0.03    -0.303 OA
DOCKED: ATOM     46  H   UNL d   1      -9.964  15.597 -10.779 +0.03 -0.02    +0.222 HD
DOCKED: ENDBRANCH  43  45
DOCKED: BRANCH  43  47
DOCKED: ATOM     47  O   UNL d   1     -10.224  13.793 -12.644 -0.10 +0.13    -0.303 OA
DOCKED: ATOM     48  H   UNL d   1      -9.750  13.473 -13.440 -0.30 -0.12    +0.222 HD
DOCKED: ENDBRANCH  43  47
DOCKED: ENDBRANCH  42  43
DOCKED: ENDBRANCH   4  42
DOCKED: TORSDOF 24
DOCKED: TER
DOCKED: ENDMDL
________________________________________________________________________________


	BEGINNING GENETIC ALGORITHM DOCKING 91 of 100
Run: 91 Seed: 134148988 31345071 [ Run 91 of 100 GA/GALS ]
Beginning LAMARCKIAN GENETIC ALGORITHM (LGA), with a maximum of 25000000 energy evaluations.

Final-Value: -17.221


	FINAL GENETIC ALGORITHM DOCKED STATE
	_______________________________________________


Detailed state:  trans 11.859 -10.749 8.863 quatxyzw -0.886968 0.288275 0.037616 -0.358847 center 0.035 0.082 -0.065 ntor 24 139.6519 2.9252 44.2934 29.0121 163.2100 -136.1989 -43.1265 85.9923 -16.4186 37.6224 73.3126 -101.9090 61.1015 179.1607 0.6058 178.9717 161.4785 118.1008 34.9428 -23.3146 -76.7479 -25.4802 -28.1494 1.1814
State:	 11.859 -10.749   8.863  -0.950  0.309  0.040 -137.941    139.65    2.93   44.29   29.01  163.21 -136.20  -43.13   85.99  -16.42   37.62   73.31 -101.91   61.10  179.16    0.61  178.97  161.48  118.10   34.94  -23.31  -76.75  -25.48  -28.15    1.18

DOCKED: MODEL       91
DOCKED: USER    Run = 91
DOCKED: USER    DPF = D:/Protein_go_brrr/autodock/final/mut_D99N/IHP/dock.dpf
DOCKED: USER  
DOCKED: USER    Estimated Free Energy of Binding    =   +1.66 kcal/mol  [=(1)+(2)+(3)-(4)]
DOCKED: USER    
DOCKED: USER    (1) Final Intermolecular Energy     =   -5.50 kcal/mol
DOCKED: USER        vdW + Hbond + desolv Energy     =   -5.11 kcal/mol
DOCKED: USER        Electrostatic Energy            =   -0.39 kcal/mol
DOCKED: USER    (2) Final Total Internal Energy     =  -11.72 kcal/mol
DOCKED: USER    (3) Torsional Free Energy           =   +7.16 kcal/mol
DOCKED: USER    (4) Unbound System's Energy  [=(2)] =  -11.72 kcal/mol
DOCKED: USER    
DOCKED: USER    
DOCKED: USER    NEWDPF move IHP_ideal_opt.pdbqt
DOCKED: USER    NEWDPF about 0.035000 0.082000 -0.065000
DOCKED: USER    NEWDPF tran0 11.858538 -10.748886 8.862548
DOCKED: USER    NEWDPF quaternion0 -0.886968 0.288275 0.037616 -0.358847
DOCKED: USER    NEWDPF axisangle0 -0.950258 0.308845 0.040300 -137.941173
DOCKED: USER    NEWDPF quat0 -0.950258 0.308845 0.040300 -137.941173
DOCKED: USER    NEWDPF dihe0 139.65 2.93 44.29 29.01 163.21 -136.20 -43.13 85.99 -16.42 37.62 73.31 -101.91 61.10 179.16 0.61 178.97 161.48 118.10 34.94 -23.31 -76.75 -25.48 -28.15 1.18 
DOCKED: USER  keepresnum = 1 
DOCKED: USER  
DOCKED: REMARK  24 active torsions:
DOCKED: REMARK  status: ('A' for Active; 'I' for Inactive)
DOCKED: REMARK    1  A    between atoms: C_1  and  O_7 
DOCKED: REMARK    2  A    between atoms: C_2  and  O_12 
DOCKED: REMARK    3  A    between atoms: C_3  and  O_17 
DOCKED: REMARK    4  A    between atoms: C_4  and  O_22 
DOCKED: REMARK    5  A    between atoms: C_5  and  O_27 
DOCKED: REMARK    6  A    between atoms: C_6  and  O_32 
DOCKED: REMARK    7  A    between atoms: O_7  and  P_8 
DOCKED: REMARK    8  A    between atoms: P_8  and  O_10 
DOCKED: REMARK    9  A    between atoms: P_8  and  O_11 
DOCKED: REMARK   10  A    between atoms: O_12  and  P_13 
DOCKED: REMARK   11  A    between atoms: P_13  and  O_15 
DOCKED: REMARK   12  A    between atoms: P_13  and  O_16 
DOCKED: REMARK   13  A    between atoms: O_17  and  P_18 
DOCKED: REMARK   14  A    between atoms: P_18  and  O_20 
DOCKED: REMARK   15  A    between atoms: P_18  and  O_21 
DOCKED: REMARK   16  A    between atoms: O_22  and  P_23 
DOCKED: REMARK   17  A    between atoms: P_23  and  O_25 
DOCKED: REMARK   18  A    between atoms: P_23  and  O_26 
DOCKED: REMARK   19  A    between atoms: O_27  and  P_28 
DOCKED: REMARK   20  A    between atoms: P_28  and  O_30 
DOCKED: REMARK   21  A    between atoms: P_28  and  O_31 
DOCKED: REMARK   22  A    between atoms: O_32  and  P_33 
DOCKED: REMARK   23  A    between atoms: P_33  and  O_35 
DOCKED: REMARK   24  A    between atoms: P_33  and  O_36 
DOCKED: USER                              x       y       z     vdW  Elec       q    Type
DOCKED: USER                           _______ _______ _______ _____ _____    ______ ____
DOCKED: ROOT
DOCKED: ATOM      1  C   UNL d   1      13.489 -10.323   8.481 -0.05 -0.08    +0.194 C 
DOCKED: ATOM      2  C   UNL d   1      12.833  -9.499   9.589 -0.12 -0.07    +0.194 C 
DOCKED: ATOM      3  C   UNL d   1      11.396  -9.112   9.234 -0.20 -0.08    +0.194 C 
DOCKED: ATOM      4  C   UNL d   1      10.538 -10.305   8.817 -0.19 -0.07    +0.194 C 
DOCKED: ATOM      5  C   UNL d   1      11.202 -11.220   7.796 -0.19 -0.06    +0.194 C 
DOCKED: ATOM      6  C   UNL d   1      12.659 -11.556   8.120 -0.11 -0.06    +0.194 C 
DOCKED: ENDROOT
DOCKED: BRANCH   1   7
DOCKED: ATOM      7  O   UNL d   1      14.754 -10.787   8.958 -0.04 +0.07    -0.278 OA
DOCKED: BRANCH   7   8
DOCKED: ATOM      8  P   UNL d   1      16.030  -9.846   8.763 -0.03 -0.09    +0.473 P 
DOCKED: ATOM      9  O   UNL d   1      16.611  -9.302  10.021 -0.01 +0.03    -0.228 OA
DOCKED: BRANCH   8  10
DOCKED: ATOM     10  O   UNL d   1      17.054 -10.748   7.938 -0.03 +0.04    -0.303 OA
DOCKED: ATOM     11  H   UNL d   1      16.795 -11.686   8.011 +0.04 -0.04    +0.222 HD
DOCKED: ENDBRANCH   8  10
DOCKED: BRANCH   8  12
DOCKED: ATOM     12  O   UNL d   1      15.588  -8.770   7.681 -0.18 +0.11    -0.303 OA
DOCKED: ATOM     13  H   UNL d   1      15.077  -9.159   6.936 -0.31 -0.12    +0.222 HD
DOCKED: ENDBRANCH   8  12
DOCKED: ENDBRANCH   7   8
DOCKED: ENDBRANCH   1   7
DOCKED: BRANCH   2  14
DOCKED: ATOM     14  O   UNL d   1      12.812 -10.271  10.796 -0.02 +0.07    -0.278 OA
DOCKED: BRANCH  14  15
DOCKED: ATOM     15  P   UNL d   1      13.816  -9.813  11.957 +0.01 -0.09    +0.473 P 
DOCKED: ATOM     16  O   UNL d   1      14.753 -10.853  12.485 -0.00 +0.03    -0.228 OA
DOCKED: BRANCH  15  17
DOCKED: ATOM     17  O   UNL d   1      14.575  -8.556  11.338 -0.01 +0.06    -0.303 OA
DOCKED: ATOM     18  H   UNL d   1      14.945  -8.766  10.459 +0.04 -0.05    +0.222 HD
DOCKED: ENDBRANCH  15  17
DOCKED: BRANCH  15  19
DOCKED: ATOM     19  O   UNL d   1      12.880  -9.119  13.040 +0.00 +0.07    -0.303 OA
DOCKED: ATOM     20  H   UNL d   1      12.104  -8.697  12.628 +0.03 -0.07    +0.222 HD
DOCKED: ENDBRANCH  15  19
DOCKED: ENDBRANCH  14  15
DOCKED: ENDBRANCH   2  14
DOCKED: BRANCH   6  21
DOCKED: ATOM     21  O   UNL d   1      13.227 -12.111   6.936 -0.12 +0.11    -0.278 OA
DOCKED: BRANCH  21  22
DOCKED: ATOM     22  P   UNL d   1      14.747 -12.594   6.939 -0.05 -0.20    +0.473 P 
DOCKED: ATOM     23  O   UNL d   1      15.320 -13.110   8.215 -0.02 +0.05    -0.228 OA
DOCKED: BRANCH  22  24
DOCKED: ATOM     24  O   UNL d   1      14.761 -13.633   5.733 -0.02 +0.28    -0.303 OA
DOCKED: ATOM     25  H   UNL d   1      15.097 -13.165   4.927 -0.48 -0.48    +0.222 HD
DOCKED: ENDBRANCH  22  24
DOCKED: BRANCH  22  26
DOCKED: ATOM     26  O   UNL d   1      15.492 -11.329   6.294 -0.16 +0.15    -0.303 OA
DOCKED: ATOM     27  H   UNL d   1      15.204 -10.516   6.757 +0.05 -0.09    +0.222 HD
DOCKED: ENDBRANCH  22  26
DOCKED: ENDBRANCH  21  22
DOCKED: ENDBRANCH   6  21
DOCKED: BRANCH   3  28
DOCKED: ATOM     28  O   UNL d   1      10.785  -8.602  10.412 -0.19 +0.15    -0.278 OA
DOCKED: BRANCH  28  29
DOCKED: ATOM     29  P   UNL d   1      10.959  -7.069  10.808 -0.11 -0.30    +0.473 P 
DOCKED: ATOM     30  O   UNL d   1       9.859  -6.489  11.622 -0.21 +0.24    -0.228 OA
DOCKED: BRANCH  29  31
DOCKED: ATOM     31  O   UNL d   1      12.411  -7.117  11.479 -0.06 +0.11    -0.303 OA
DOCKED: ATOM     32  H   UNL d   1      12.800  -8.009  11.323 +0.06 -0.07    +0.222 HD
DOCKED: ENDBRANCH  29  31
DOCKED: BRANCH  29  33
DOCKED: ATOM     33  O   UNL d   1      11.246  -6.389   9.397 -0.12 +0.18    -0.303 OA
DOCKED: ATOM     34  H   UNL d   1      10.834  -5.490   9.384 +0.10 -0.17    +0.222 HD
DOCKED: ENDBRANCH  29  33
DOCKED: ENDBRANCH  28  29
DOCKED: ENDBRANCH   3  28
DOCKED: BRANCH   5  35
DOCKED: ATOM     35  O   UNL d   1      10.469 -12.443   7.838 -0.07 +0.07    -0.278 OA
DOCKED: BRANCH  35  36
DOCKED: ATOM     36  P   UNL d   1       9.405 -12.783   6.700 -0.11 -0.14    +0.473 P 
DOCKED: ATOM     37  O   UNL d   1       8.304 -13.712   7.103 -0.15 +0.08    -0.228 OA
DOCKED: BRANCH  36  38
DOCKED: ATOM     38  O   UNL d   1       8.911 -11.331   6.270 -0.30 +0.10    -0.303 OA
DOCKED: ATOM     39  H   UNL d   1       8.177 -11.054   6.860 +0.10 -0.06    +0.222 HD
DOCKED: ENDBRANCH  36  38
DOCKED: BRANCH  36  40
DOCKED: ATOM     40  O   UNL d   1      10.333 -13.244   5.494 -0.24 +0.07    -0.303 OA
DOCKED: ATOM     41  H   UNL d   1      11.287 -13.148   5.711 +0.10 -0.06    +0.222 HD
DOCKED: ENDBRANCH  36  40
DOCKED: ENDBRANCH  35  36
DOCKED: ENDBRANCH   5  35
DOCKED: BRANCH   4  42
DOCKED: ATOM     42  O   UNL d   1       9.359  -9.773   8.203 -0.74 +0.08    -0.278 OA
DOCKED: BRANCH  42  43
DOCKED: ATOM     43  P   UNL d   1       7.965  -9.906   8.966 -0.12 -0.34    +0.473 P 
DOCKED: ATOM     44  O   UNL d   1       6.843  -9.043   8.502 -0.53 +0.20    -0.228 OA
DOCKED: BRANCH  43  45
DOCKED: ATOM     45  O   UNL d   1       7.666 -11.466   8.877 -0.17 +0.14    -0.303 OA
DOCKED: ATOM     46  H   UNL d   1       8.377 -11.941   8.402 +0.10 -0.08    +0.222 HD
DOCKED: ENDBRANCH  43  45
DOCKED: BRANCH  43  47
DOCKED: ATOM     47  O   UNL d   1       8.374  -9.740  10.507 -0.23 +0.41    -0.303 OA
DOCKED: ATOM     48  H   UNL d   1       8.534  -8.793  10.698 -0.07 -0.37    +0.222 HD
DOCKED: ENDBRANCH  43  47
DOCKED: ENDBRANCH  42  43
DOCKED: ENDBRANCH   4  42
DOCKED: TORSDOF 24
DOCKED: TER
DOCKED: ENDMDL
________________________________________________________________________________


	BEGINNING GENETIC ALGORITHM DOCKING 92 of 100
Run: 92 Seed: 654718644 1411484264 [ Run 92 of 100 GA/GALS ]
Beginning LAMARCKIAN GENETIC ALGORITHM (LGA), with a maximum of 25000000 energy evaluations.

Final-Value: -20.320


	FINAL GENETIC ALGORITHM DOCKED STATE
	_______________________________________________


Detailed state:  trans -11.333 -4.716 7.705 quatxyzw 0.375716 0.104041 -0.900719 -0.191620 center 0.035 0.082 -0.065 ntor 24 119.4851 179.8537 58.1207 19.2250 144.5082 134.5458 -3.5032 -74.3549 3.9861 10.9235 16.8199 -127.1598 -58.4790 162.9733 -151.2986 75.0052 -142.4918 -39.0989 56.7393 0.3049 9.8921 -8.5695 -26.2153 179.9581
State:	-11.333  -4.716   7.705   0.383  0.106 -0.918 -157.905    119.49  179.85   58.12   19.23  144.51  134.55   -3.50  -74.35    3.99   10.92   16.82 -127.16  -58.48  162.97 -151.30   75.01 -142.49  -39.10   56.74    0.30    9.89   -8.57  -26.22  179.96

DOCKED: MODEL       92
DOCKED: USER    Run = 92
DOCKED: USER    DPF = D:/Protein_go_brrr/autodock/final/mut_D99N/IHP/dock.dpf
DOCKED: USER  
DOCKED: USER    Estimated Free Energy of Binding    =   +2.26 kcal/mol  [=(1)+(2)+(3)-(4)]
DOCKED: USER    
DOCKED: USER    (1) Final Intermolecular Energy     =   -4.90 kcal/mol
DOCKED: USER        vdW + Hbond + desolv Energy     =   -4.72 kcal/mol
DOCKED: USER        Electrostatic Energy            =   -0.18 kcal/mol
DOCKED: USER    (2) Final Total Internal Energy     =  -15.42 kcal/mol
DOCKED: USER    (3) Torsional Free Energy           =   +7.16 kcal/mol
DOCKED: USER    (4) Unbound System's Energy  [=(2)] =  -15.42 kcal/mol
DOCKED: USER    
DOCKED: USER    
DOCKED: USER    NEWDPF move IHP_ideal_opt.pdbqt
DOCKED: USER    NEWDPF about 0.035000 0.082000 -0.065000
DOCKED: USER    NEWDPF tran0 -11.332611 -4.715840 7.704577
DOCKED: USER    NEWDPF quaternion0 0.375716 0.104041 -0.900719 -0.191620
DOCKED: USER    NEWDPF axisangle0 0.382810 0.106005 -0.917725 -157.905317
DOCKED: USER    NEWDPF quat0 0.382810 0.106005 -0.917725 -157.905317
DOCKED: USER    NEWDPF dihe0 119.49 179.85 58.12 19.23 144.51 134.55 -3.50 -74.35 3.99 10.92 16.82 -127.16 -58.48 162.97 -151.30 75.01 -142.49 -39.10 56.74 0.30 9.89 -8.57 -26.22 179.96 
DOCKED: USER  keepresnum = 1 
DOCKED: USER  
DOCKED: REMARK  24 active torsions:
DOCKED: REMARK  status: ('A' for Active; 'I' for Inactive)
DOCKED: REMARK    1  A    between atoms: C_1  and  O_7 
DOCKED: REMARK    2  A    between atoms: C_2  and  O_12 
DOCKED: REMARK    3  A    between atoms: C_3  and  O_17 
DOCKED: REMARK    4  A    between atoms: C_4  and  O_22 
DOCKED: REMARK    5  A    between atoms: C_5  and  O_27 
DOCKED: REMARK    6  A    between atoms: C_6  and  O_32 
DOCKED: REMARK    7  A    between atoms: O_7  and  P_8 
DOCKED: REMARK    8  A    between atoms: P_8  and  O_10 
DOCKED: REMARK    9  A    between atoms: P_8  and  O_11 
DOCKED: REMARK   10  A    between atoms: O_12  and  P_13 
DOCKED: REMARK   11  A    between atoms: P_13  and  O_15 
DOCKED: REMARK   12  A    between atoms: P_13  and  O_16 
DOCKED: REMARK   13  A    between atoms: O_17  and  P_18 
DOCKED: REMARK   14  A    between atoms: P_18  and  O_20 
DOCKED: REMARK   15  A    between atoms: P_18  and  O_21 
DOCKED: REMARK   16  A    between atoms: O_22  and  P_23 
DOCKED: REMARK   17  A    between atoms: P_23  and  O_25 
DOCKED: REMARK   18  A    between atoms: P_23  and  O_26 
DOCKED: REMARK   19  A    between atoms: O_27  and  P_28 
DOCKED: REMARK   20  A    between atoms: P_28  and  O_30 
DOCKED: REMARK   21  A    between atoms: P_28  and  O_31 
DOCKED: REMARK   22  A    between atoms: O_32  and  P_33 
DOCKED: REMARK   23  A    between atoms: P_33  and  O_35 
DOCKED: REMARK   24  A    between atoms: P_33  and  O_36 
DOCKED: USER                              x       y       z     vdW  Elec       q    Type
DOCKED: USER                           _______ _______ _______ _____ _____    ______ ____
DOCKED: ROOT
DOCKED: ATOM      1  C   UNL d   1     -13.020  -4.509   7.396 -0.10 +0.12    +0.194 C 
DOCKED: ATOM      2  C   UNL d   1     -12.321  -3.326   8.068 -0.12 +0.10    +0.194 C 
DOCKED: ATOM      3  C   UNL d   1     -11.369  -3.785   9.175 -0.15 +0.06    +0.194 C 
DOCKED: ATOM      4  C   UNL d   1     -10.380  -4.853   8.713 -0.22 +0.05    +0.194 C 
DOCKED: ATOM      5  C   UNL d   1     -11.020  -5.996   7.937 -0.14 +0.06    +0.194 C 
DOCKED: ATOM      6  C   UNL d   1     -12.019  -5.539   6.871 -0.12 +0.11    +0.194 C 
DOCKED: ENDROOT
DOCKED: BRANCH   1   7
DOCKED: ATOM      7  O   UNL d   1     -13.751  -4.015   6.271 -0.64 -0.36    -0.278 OA
DOCKED: BRANCH   7   8
DOCKED: ATOM      8  P   UNL d   1     -14.985  -3.036   6.538 -0.03 +0.42    +0.473 P 
DOCKED: ATOM      9  O   UNL d   1     -15.352  -2.860   7.970 -0.01 -0.10    -0.228 OA
DOCKED: BRANCH   8  10
DOCKED: ATOM     10  O   UNL d   1     -14.559  -1.673   5.826 -0.18 -0.41    -0.303 OA
DOCKED: ATOM     11  H   UNL d   1     -13.606  -1.519   5.960 +0.03 +0.38    +0.222 HD
DOCKED: ENDBRANCH   8  10
DOCKED: BRANCH   8  12
DOCKED: ATOM     12  O   UNL d   1     -16.142  -3.562   5.585 -0.05 -0.21    -0.303 OA
DOCKED: ATOM     13  H   UNL d   1     -17.016  -3.620   6.035 +0.01 +0.09    +0.222 HD
DOCKED: ENDBRANCH   8  12
DOCKED: ENDBRANCH   7   8
DOCKED: ENDBRANCH   1   7
DOCKED: BRANCH   2  14
DOCKED: ATOM     14  O   UNL d   1     -11.565  -2.609   7.084 -0.17 -0.24    -0.278 OA
DOCKED: BRANCH  14  15
DOCKED: ATOM     15  P   UNL d   1     -11.747  -1.018   7.061 -0.04 +0.39    +0.473 P 
DOCKED: ATOM     16  O   UNL d   1     -11.774  -0.364   5.715 -0.59 -0.27    -0.228 OA
DOCKED: BRANCH  15  17
DOCKED: ATOM     17  O   UNL d   1     -13.080  -0.768   7.896 -0.06 -0.16    -0.303 OA
DOCKED: ATOM     18  H   UNL d   1     -13.742  -1.464   7.719 +0.04 +0.13    +0.222 HD
DOCKED: ENDBRANCH  15  17
DOCKED: BRANCH  15  19
DOCKED: ATOM     19  O   UNL d   1     -10.636  -0.478   8.064 -0.65 -0.18    -0.303 OA
DOCKED: ATOM     20  H   UNL d   1     -10.563  -1.039   8.858 +0.12 +0.09    +0.222 HD
DOCKED: ENDBRANCH  15  19
DOCKED: ENDBRANCH  14  15
DOCKED: ENDBRANCH   2  14
DOCKED: BRANCH   6  21
DOCKED: ATOM     21  O   UNL d   1     -12.766  -6.691   6.487 -0.06 -0.11    -0.278 OA
DOCKED: BRANCH  21  22
DOCKED: ATOM     22  P   UNL d   1     -12.284  -7.570   5.246 -0.06 +0.15    +0.473 P 
DOCKED: ATOM     23  O   UNL d   1     -13.219  -7.743   4.098 -0.04 -0.07    -0.228 OA
DOCKED: BRANCH  22  24
DOCKED: ATOM     24  O   UNL d   1     -10.896  -6.882   4.880 -0.13 -0.13    -0.303 OA
DOCKED: ATOM     25  H   UNL d   1     -10.215  -7.198   5.526 +0.07 +0.07    +0.222 HD
DOCKED: ENDBRANCH  22  24
DOCKED: BRANCH  22  26
DOCKED: ATOM     26  O   UNL d   1     -11.803  -8.918   5.970 -0.01 -0.06    -0.303 OA
DOCKED: ATOM     27  H   UNL d   1     -11.341  -8.689   6.802 +0.04 +0.04    +0.222 HD
DOCKED: ENDBRANCH  22  26
DOCKED: ENDBRANCH  21  22
DOCKED: ENDBRANCH   6  21
DOCKED: BRANCH   3  28
DOCKED: ATOM     28  O   UNL d   1     -10.572  -2.667   9.545 -0.21 -0.08    -0.278 OA
DOCKED: BRANCH  28  29
DOCKED: ATOM     29  P   UNL d   1     -10.896  -1.852  10.874 -0.15 +0.13    +0.473 P 
DOCKED: ATOM     30  O   UNL d   1     -11.087  -2.673  12.098 -0.13 -0.06    -0.228 OA
DOCKED: BRANCH  29  31
DOCKED: ATOM     31  O   UNL d   1      -9.671  -0.822  10.876 -0.39 -0.07    -0.303 OA
DOCKED: ATOM     32  H   UNL d   1      -9.597  -0.421   9.979 +0.06 +0.05    +0.222 HD
DOCKED: ENDBRANCH  29  31
DOCKED: BRANCH  29  33
DOCKED: ATOM     33  O   UNL d   1     -12.120  -0.943  10.419 -0.06 -0.09    -0.303 OA
DOCKED: ATOM     34  H   UNL d   1     -12.172  -0.944   9.432 +0.08 +0.08    +0.222 HD
DOCKED: ENDBRANCH  29  33
DOCKED: ENDBRANCH  28  29
DOCKED: ENDBRANCH   3  28
DOCKED: BRANCH   5  35
DOCKED: ATOM     35  O   UNL d   1      -9.950  -6.649   7.257 -0.17 -0.08    -0.278 OA
DOCKED: BRANCH  35  36
DOCKED: ATOM     36  P   UNL d   1      -9.394  -8.047   7.786 -0.11 +0.13    +0.473 P 
DOCKED: ATOM     37  O   UNL d   1      -8.161  -7.974   8.629 -0.14 -0.10    -0.228 OA
DOCKED: BRANCH  36  38
DOCKED: ATOM     38  O   UNL d   1     -10.667  -8.641   8.537 -0.03 -0.07    -0.303 OA
DOCKED: ATOM     39  H   UNL d   1     -10.869  -8.081   9.317 +0.04 +0.05    +0.222 HD
DOCKED: ENDBRANCH  36  38
DOCKED: BRANCH  36  40
DOCKED: ATOM     40  O   UNL d   1      -9.305  -8.905   6.449 -0.09 -0.07    -0.303 OA
DOCKED: ATOM     41  H   UNL d   1      -9.991  -8.638   5.798 +0.06 +0.04    +0.222 HD
DOCKED: ENDBRANCH  36  40
DOCKED: ENDBRANCH  35  36
DOCKED: ENDBRANCH   5  35
DOCKED: BRANCH   4  42
DOCKED: ATOM     42  O   UNL d   1      -9.800  -5.418   9.894 -0.16 -0.06    -0.278 OA
DOCKED: BRANCH  42  43
DOCKED: ATOM     43  P   UNL d   1     -10.713  -6.307  10.852 -0.04 +0.09    +0.473 P 
DOCKED: ATOM     44  O   UNL d   1     -12.091  -6.628  10.385 -0.02 -0.04    -0.228 OA
DOCKED: BRANCH  43  45
DOCKED: ATOM     45  O   UNL d   1      -9.802  -7.585  11.116 -0.04 -0.07    -0.303 OA
DOCKED: ATOM     46  H   UNL d   1      -9.537  -8.015  10.278 +0.05 +0.06    +0.222 HD
DOCKED: ENDBRANCH  43  45
DOCKED: BRANCH  43  47
DOCKED: ATOM     47  O   UNL d   1     -10.619  -5.545  12.259 -0.05 -0.06    -0.303 OA
DOCKED: ATOM     48  H   UNL d   1     -10.835  -4.598  12.128 +0.05 +0.04    +0.222 HD
DOCKED: ENDBRANCH  43  47
DOCKED: ENDBRANCH  42  43
DOCKED: ENDBRANCH   4  42
DOCKED: TORSDOF 24
DOCKED: TER
DOCKED: ENDMDL
________________________________________________________________________________


	BEGINNING GENETIC ALGORITHM DOCKING 93 of 100
Run: 93 Seed: 1134626380 1333893276 [ Run 93 of 100 GA/GALS ]
Beginning LAMARCKIAN GENETIC ALGORITHM (LGA), with a maximum of 25000000 energy evaluations.

Final-Value: -18.276


	FINAL GENETIC ALGORITHM DOCKED STATE
	_______________________________________________


Detailed state:  trans -13.501 1.737 11.233 quatxyzw -0.264608 0.484388 -0.079365 -0.830092 center 0.035 0.082 -0.065 ntor 24 100.8112 167.5658 19.1103 123.7663 56.9002 -164.3610 86.1406 22.9875 -7.5237 37.9679 -179.5394 -172.0449 -27.7559 -24.7682 122.2054 43.0071 166.4442 77.3986 31.7171 -43.3569 -18.3546 -60.4770 -180.0000 20.2800
State:	-13.501   1.737  11.233  -0.475  0.869 -0.142 -67.784    100.81  167.57   19.11  123.77   56.90 -164.36   86.14   22.99   -7.52   37.97 -179.54 -172.04  -27.76  -24.77  122.21   43.01  166.44   77.40   31.72  -43.36  -18.35  -60.48 -180.00   20.28

DOCKED: MODEL       93
DOCKED: USER    Run = 93
DOCKED: USER    DPF = D:/Protein_go_brrr/autodock/final/mut_D99N/IHP/dock.dpf
DOCKED: USER  
DOCKED: USER    Estimated Free Energy of Binding    =   +2.00 kcal/mol  [=(1)+(2)+(3)-(4)]
DOCKED: USER    
DOCKED: USER    (1) Final Intermolecular Energy     =   -5.16 kcal/mol
DOCKED: USER        vdW + Hbond + desolv Energy     =   -4.93 kcal/mol
DOCKED: USER        Electrostatic Energy            =   -0.23 kcal/mol
DOCKED: USER    (2) Final Total Internal Energy     =  -13.12 kcal/mol
DOCKED: USER    (3) Torsional Free Energy           =   +7.16 kcal/mol
DOCKED: USER    (4) Unbound System's Energy  [=(2)] =  -13.12 kcal/mol
DOCKED: USER    
DOCKED: USER    
DOCKED: USER    NEWDPF move IHP_ideal_opt.pdbqt
DOCKED: USER    NEWDPF about 0.035000 0.082000 -0.065000
DOCKED: USER    NEWDPF tran0 -13.501479 1.737080 11.232680
DOCKED: USER    NEWDPF quaternion0 -0.264608 0.484388 -0.079365 -0.830092
DOCKED: USER    NEWDPF axisangle0 -0.474525 0.868660 -0.142326 -67.783698
DOCKED: USER    NEWDPF quat0 -0.474525 0.868660 -0.142326 -67.783698
DOCKED: USER    NEWDPF dihe0 100.81 167.57 19.11 123.77 56.90 -164.36 86.14 22.99 -7.52 37.97 -179.54 -172.04 -27.76 -24.77 122.21 43.01 166.44 77.40 31.72 -43.36 -18.35 -60.48 -180.00 20.28 
DOCKED: USER  keepresnum = 1 
DOCKED: USER  
DOCKED: REMARK  24 active torsions:
DOCKED: REMARK  status: ('A' for Active; 'I' for Inactive)
DOCKED: REMARK    1  A    between atoms: C_1  and  O_7 
DOCKED: REMARK    2  A    between atoms: C_2  and  O_12 
DOCKED: REMARK    3  A    between atoms: C_3  and  O_17 
DOCKED: REMARK    4  A    between atoms: C_4  and  O_22 
DOCKED: REMARK    5  A    between atoms: C_5  and  O_27 
DOCKED: REMARK    6  A    between atoms: C_6  and  O_32 
DOCKED: REMARK    7  A    between atoms: O_7  and  P_8 
DOCKED: REMARK    8  A    between atoms: P_8  and  O_10 
DOCKED: REMARK    9  A    between atoms: P_8  and  O_11 
DOCKED: REMARK   10  A    between atoms: O_12  and  P_13 
DOCKED: REMARK   11  A    between atoms: P_13  and  O_15 
DOCKED: REMARK   12  A    between atoms: P_13  and  O_16 
DOCKED: REMARK   13  A    between atoms: O_17  and  P_18 
DOCKED: REMARK   14  A    between atoms: P_18  and  O_20 
DOCKED: REMARK   15  A    between atoms: P_18  and  O_21 
DOCKED: REMARK   16  A    between atoms: O_22  and  P_23 
DOCKED: REMARK   17  A    between atoms: P_23  and  O_25 
DOCKED: REMARK   18  A    between atoms: P_23  and  O_26 
DOCKED: REMARK   19  A    between atoms: O_27  and  P_28 
DOCKED: REMARK   20  A    between atoms: P_28  and  O_30 
DOCKED: REMARK   21  A    between atoms: P_28  and  O_31 
DOCKED: REMARK   22  A    between atoms: O_32  and  P_33 
DOCKED: REMARK   23  A    between atoms: P_33  and  O_35 
DOCKED: REMARK   24  A    between atoms: P_33  and  O_36 
DOCKED: USER                              x       y       z     vdW  Elec       q    Type
DOCKED: USER                           _______ _______ _______ _____ _____    ______ ____
DOCKED: ROOT
DOCKED: ATOM      1  C   UNL d   1     -12.072   0.785  11.045 -0.23 +0.07    +0.194 C 
DOCKED: ATOM      2  C   UNL d   1     -12.931   0.454  12.267 -0.16 +0.09    +0.194 C 
DOCKED: ATOM      3  C   UNL d   1     -13.425   1.720  12.972 -0.11 +0.15    +0.194 C 
DOCKED: ATOM      4  C   UNL d   1     -14.116   2.702  12.029 -0.22 +0.11    +0.194 C 
DOCKED: ATOM      5  C   UNL d   1     -13.347   2.973  10.742 -0.22 +0.08    +0.194 C 
DOCKED: ATOM      6  C   UNL d   1     -12.800   1.712  10.070 -0.17 +0.06    +0.194 C 
DOCKED: ENDROOT
DOCKED: BRANCH   1   7
DOCKED: ATOM      7  O   UNL d   1     -11.798  -0.434  10.350 -0.12 -0.09    -0.278 OA
DOCKED: BRANCH   7   8
DOCKED: ATOM      8  P   UNL d   1     -10.479  -1.247  10.736 -0.24 +0.13    +0.473 P 
DOCKED: ATOM      9  O   UNL d   1      -9.958  -0.992  12.107 -0.36 -0.07    -0.228 OA
DOCKED: BRANCH   8  10
DOCKED: ATOM     10  O   UNL d   1     -10.879  -2.772  10.491 -0.13 -0.08    -0.303 OA
DOCKED: ATOM     11  H   UNL d   1     -11.664  -2.994  11.026 +0.07 +0.05    +0.222 HD
DOCKED: ENDBRANCH   8  10
DOCKED: BRANCH   8  12
DOCKED: ATOM     12  O   UNL d   1      -9.462  -0.975   9.546 -0.33 -0.07    -0.303 OA
DOCKED: ATOM     13  H   UNL d   1      -8.615  -0.574   9.846 -0.40 +0.01    +0.222 HD
DOCKED: ENDBRANCH   8  12
DOCKED: ENDBRANCH   7   8
DOCKED: ENDBRANCH   1   7
DOCKED: BRANCH   2  14
DOCKED: ATOM     14  O   UNL d   1     -14.069  -0.307  11.846 -0.03 -0.09    -0.278 OA
DOCKED: BRANCH  14  15
DOCKED: ATOM     15  P   UNL d   1     -13.884  -1.897  11.785 +0.01 +0.12    +0.473 P 
DOCKED: ATOM     16  O   UNL d   1     -12.927  -2.500  12.765 -0.03 -0.05    -0.228 OA
DOCKED: BRANCH  15  17
DOCKED: ATOM     17  O   UNL d   1     -15.365  -2.465  11.938 -0.00 -0.06    -0.303 OA
DOCKED: ATOM     18  H   UNL d   1     -15.666  -2.417  12.866 +0.01 +0.04    +0.222 HD
DOCKED: ENDBRANCH  15  17
DOCKED: BRANCH  15  19
DOCKED: ATOM     19  O   UNL d   1     -13.582  -2.203  10.253 -0.01 -0.08    -0.303 OA
DOCKED: ATOM     20  H   UNL d   1     -12.743  -1.798   9.964 +0.06 +0.07    +0.222 HD
DOCKED: ENDBRANCH  15  19
DOCKED: ENDBRANCH  14  15
DOCKED: ENDBRANCH   2  14
DOCKED: BRANCH   6  21
DOCKED: ATOM     21  O   UNL d   1     -11.842   2.141   9.106 -0.02 -0.07    -0.278 OA
DOCKED: BRANCH  21  22
DOCKED: ATOM     22  P   UNL d   1     -12.047   1.773   7.568 -0.12 +0.14    +0.473 P 
DOCKED: ATOM     23  O   UNL d   1     -11.463   2.684   6.541 -0.25 -0.04    -0.228 OA
DOCKED: BRANCH  22  24
DOCKED: ATOM     24  O   UNL d   1     -11.506   0.276   7.516 -0.55 -0.18    -0.303 OA
DOCKED: ATOM     25  H   UNL d   1     -11.075   0.074   8.385 +0.10 +0.10    +0.222 HD
DOCKED: ENDBRANCH  22  24
DOCKED: BRANCH  22  26
DOCKED: ATOM     26  O   UNL d   1     -13.633   1.554   7.494 -0.03 -0.10    -0.303 OA
DOCKED: ATOM     27  H   UNL d   1     -14.057   2.018   8.244 +0.05 +0.06    +0.222 HD
DOCKED: ENDBRANCH  22  26
DOCKED: ENDBRANCH  21  22
DOCKED: ENDBRANCH   6  21
DOCKED: BRANCH   3  28
DOCKED: ATOM     28  O   UNL d   1     -14.422   1.328  13.906 -0.10 -0.21    -0.278 OA
DOCKED: BRANCH  28  29
DOCKED: ATOM     29  P   UNL d   1     -14.142   0.143  14.933 -0.03 +0.28    +0.473 P 
DOCKED: ATOM     30  O   UNL d   1     -12.714  -0.224  15.113 -0.10 -0.14    -0.228 OA
DOCKED: BRANCH  29  31
DOCKED: ATOM     31  O   UNL d   1     -14.917   0.698  16.218 -0.06 -0.18    -0.303 OA
DOCKED: ATOM     32  H   UNL d   1     -15.410  -0.047  16.634 +0.01 +0.08    +0.222 HD
DOCKED: ENDBRANCH  29  31
DOCKED: BRANCH  29  33
DOCKED: ATOM     33  O   UNL d   1     -15.116  -0.998  14.400 -0.01 -0.09    -0.303 OA
DOCKED: ATOM     34  H   UNL d   1     -14.680  -1.468  13.648 +0.02 +0.06    +0.222 HD
DOCKED: ENDBRANCH  29  33
DOCKED: ENDBRANCH  28  29
DOCKED: ENDBRANCH   3  28
DOCKED: BRANCH   5  35
DOCKED: ATOM     35  O   UNL d   1     -14.290   3.553   9.843 -0.34 -0.12    -0.278 OA
DOCKED: BRANCH  35  36
DOCKED: ATOM     36  P   UNL d   1     -15.710   2.864   9.612 -0.02 +0.12    +0.473 P 
DOCKED: ATOM     37  O   UNL d   1     -16.304   3.051   8.252 -0.01 -0.05    -0.228 OA
DOCKED: BRANCH  36  38
DOCKED: ATOM     38  O   UNL d   1     -15.403   1.348   9.990 -0.01 -0.08    -0.303 OA
DOCKED: ATOM     39  H   UNL d   1     -14.929   0.921   9.243 +0.03 +0.06    +0.222 HD
DOCKED: ENDBRANCH  36  38
DOCKED: BRANCH  36  40
DOCKED: ATOM     40  O   UNL d   1     -16.554   3.403  10.848 -0.03 -0.08    -0.303 OA
DOCKED: ATOM     41  H   UNL d   1     -16.005   3.950  11.453 +0.04 +0.08    +0.222 HD
DOCKED: ENDBRANCH  36  40
DOCKED: ENDBRANCH  35  36
DOCKED: ENDBRANCH   5  35
DOCKED: BRANCH   4  42
DOCKED: ATOM     42  O   UNL d   1     -14.217   3.947  12.729 -0.56 -0.25    -0.278 OA
DOCKED: BRANCH  42  43
DOCKED: ATOM     43  P   UNL d   1     -15.522   4.239  13.598 -0.12 +0.36    +0.473 P 
DOCKED: ATOM     44  O   UNL d   1     -15.331   4.552  15.042 -0.18 -0.26    -0.228 OA
DOCKED: BRANCH  43  45
DOCKED: ATOM     45  O   UNL d   1     -16.240   5.394  12.772 -0.08 -0.13    -0.303 OA
DOCKED: ATOM     46  H   UNL d   1     -17.039   5.063  12.314 +0.03 +0.07    +0.222 HD
DOCKED: ENDBRANCH  43  45
DOCKED: BRANCH  43  47
DOCKED: ATOM     47  O   UNL d   1     -16.462   2.980  13.282 -0.03 -0.13    -0.303 OA
DOCKED: ATOM     48  H   UNL d   1     -15.961   2.329  12.749 +0.04 +0.09    +0.222 HD
DOCKED: ENDBRANCH  43  47
DOCKED: ENDBRANCH  42  43
DOCKED: ENDBRANCH   4  42
DOCKED: TORSDOF 24
DOCKED: TER
DOCKED: ENDMDL
________________________________________________________________________________


	BEGINNING GENETIC ALGORITHM DOCKING 94 of 100
Run: 94 Seed: 1374085287 187186569 [ Run 94 of 100 GA/GALS ]
Beginning LAMARCKIAN GENETIC ALGORITHM (LGA), with a maximum of 25000000 energy evaluations.

Final-Value: -19.483


	FINAL GENETIC ALGORITHM DOCKED STATE
	_______________________________________________


Detailed state:  trans 6.178 -0.446 13.653 quatxyzw -0.230138 0.178294 -0.877429 0.381268 center 0.035 0.082 -0.065 ntor 24 117.0800 96.2530 114.1473 -176.4402 16.1270 -168.9072 56.2474 -94.1948 103.6167 -60.6306 -4.5535 95.3094 180.0000 -117.9437 -36.4045 106.8781 163.9281 -76.3313 13.3031 -19.0555 170.9990 -17.9817 23.3891 -142.7639
State:	  6.178  -0.446  13.653  -0.249  0.193 -0.949 135.176    117.08   96.25  114.15 -176.44   16.13 -168.91   56.25  -94.19  103.62  -60.63   -4.55   95.31  180.00 -117.94  -36.40  106.88  163.93  -76.33   13.30  -19.06  171.00  -17.98   23.39 -142.76

DOCKED: MODEL       94
DOCKED: USER    Run = 94
DOCKED: USER    DPF = D:/Protein_go_brrr/autodock/final/mut_D99N/IHP/dock.dpf
DOCKED: USER  
DOCKED: USER    Estimated Free Energy of Binding    =   +1.17 kcal/mol  [=(1)+(2)+(3)-(4)]
DOCKED: USER    
DOCKED: USER    (1) Final Intermolecular Energy     =   -5.99 kcal/mol
DOCKED: USER        vdW + Hbond + desolv Energy     =   -5.82 kcal/mol
DOCKED: USER        Electrostatic Energy            =   -0.17 kcal/mol
DOCKED: USER    (2) Final Total Internal Energy     =  -13.49 kcal/mol
DOCKED: USER    (3) Torsional Free Energy           =   +7.16 kcal/mol
DOCKED: USER    (4) Unbound System's Energy  [=(2)] =  -13.49 kcal/mol
DOCKED: USER    
DOCKED: USER    
DOCKED: USER    NEWDPF move IHP_ideal_opt.pdbqt
DOCKED: USER    NEWDPF about 0.035000 0.082000 -0.065000
DOCKED: USER    NEWDPF tran0 6.178430 -0.446407 13.652849
DOCKED: USER    NEWDPF quaternion0 -0.230138 0.178294 -0.877429 0.381268
DOCKED: USER    NEWDPF axisangle0 -0.248942 0.192862 -0.949122 135.175510
DOCKED: USER    NEWDPF quat0 -0.248942 0.192862 -0.949122 135.175510
DOCKED: USER    NEWDPF dihe0 117.08 96.25 114.15 -176.44 16.13 -168.91 56.25 -94.19 103.62 -60.63 -4.55 95.31 180.00 -117.94 -36.40 106.88 163.93 -76.33 13.30 -19.06 171.00 -17.98 23.39 -142.76 
DOCKED: USER  keepresnum = 1 
DOCKED: USER  
DOCKED: REMARK  24 active torsions:
DOCKED: REMARK  status: ('A' for Active; 'I' for Inactive)
DOCKED: REMARK    1  A    between atoms: C_1  and  O_7 
DOCKED: REMARK    2  A    between atoms: C_2  and  O_12 
DOCKED: REMARK    3  A    between atoms: C_3  and  O_17 
DOCKED: REMARK    4  A    between atoms: C_4  and  O_22 
DOCKED: REMARK    5  A    between atoms: C_5  and  O_27 
DOCKED: REMARK    6  A    between atoms: C_6  and  O_32 
DOCKED: REMARK    7  A    between atoms: O_7  and  P_8 
DOCKED: REMARK    8  A    between atoms: P_8  and  O_10 
DOCKED: REMARK    9  A    between atoms: P_8  and  O_11 
DOCKED: REMARK   10  A    between atoms: O_12  and  P_13 
DOCKED: REMARK   11  A    between atoms: P_13  and  O_15 
DOCKED: REMARK   12  A    between atoms: P_13  and  O_16 
DOCKED: REMARK   13  A    between atoms: O_17  and  P_18 
DOCKED: REMARK   14  A    between atoms: P_18  and  O_20 
DOCKED: REMARK   15  A    between atoms: P_18  and  O_21 
DOCKED: REMARK   16  A    between atoms: O_22  and  P_23 
DOCKED: REMARK   17  A    between atoms: P_23  and  O_25 
DOCKED: REMARK   18  A    between atoms: P_23  and  O_26 
DOCKED: REMARK   19  A    between atoms: O_27  and  P_28 
DOCKED: REMARK   20  A    between atoms: P_28  and  O_30 
DOCKED: REMARK   21  A    between atoms: P_28  and  O_31 
DOCKED: REMARK   22  A    between atoms: O_32  and  P_33 
DOCKED: REMARK   23  A    between atoms: P_33  and  O_35 
DOCKED: REMARK   24  A    between atoms: P_33  and  O_36 
DOCKED: USER                              x       y       z     vdW  Elec       q    Type
DOCKED: USER                           _______ _______ _______ _____ _____    ______ ____
DOCKED: ROOT
DOCKED: ATOM      1  C   UNL d   1       6.301   0.476  15.108 -0.12 -0.01    +0.194 C 
DOCKED: ATOM      2  C   UNL d   1       7.559   0.443  14.238 -0.10 -0.02    +0.194 C 
DOCKED: ATOM      3  C   UNL d   1       7.840  -0.962  13.702 -0.12 -0.06    +0.194 C 
DOCKED: ATOM      4  C   UNL d   1       6.638  -1.590  13.002 -0.18 -0.10    +0.194 C 
DOCKED: ATOM      5  C   UNL d   1       5.336  -1.478  13.784 -0.17 -0.03    +0.194 C 
DOCKED: ATOM      6  C   UNL d   1       5.085  -0.088  14.373 +0.05 +0.00    +0.194 C 
DOCKED: ENDROOT
DOCKED: BRANCH   1   7
DOCKED: ATOM      7  O   UNL d   1       6.013   1.840  15.424 -0.08 +0.01    -0.278 OA
DOCKED: BRANCH   7   8
DOCKED: ATOM      8  P   UNL d   1       6.241   2.336  16.925 -0.09 -0.11    +0.473 P 
DOCKED: ATOM      9  O   UNL d   1       5.081   3.034  17.543 -0.29 +0.09    -0.228 OA
DOCKED: BRANCH   8  10
DOCKED: ATOM     10  O   UNL d   1       6.668   1.014  17.709 -0.03 +0.05    -0.303 OA
DOCKED: ATOM     11  H   UNL d   1       6.124   0.264  17.405 +0.05 -0.01    +0.222 HD
DOCKED: ENDBRANCH   8  10
DOCKED: BRANCH   8  12
DOCKED: ATOM     12  O   UNL d   1       7.603   3.155  16.888 -0.07 +0.11    -0.303 OA
DOCKED: ATOM     13  H   UNL d   1       7.622   3.839  16.181 +0.07 -0.07    +0.222 HD
DOCKED: ENDBRANCH   8  12
DOCKED: ENDBRANCH   7   8
DOCKED: ENDBRANCH   1   7
DOCKED: BRANCH   2  14
DOCKED: ATOM     14  O   UNL d   1       7.382   1.329  13.126 -0.15 -0.00    -0.278 OA
DOCKED: BRANCH  14  15
DOCKED: ATOM     15  P   UNL d   1       8.309   2.634  13.096 -0.13 +0.07    +0.473 P 
DOCKED: ATOM     16  O   UNL d   1       8.141   3.605  14.222 -0.11 +0.00    -0.228 OA
DOCKED: BRANCH  15  17
DOCKED: ATOM     17  O   UNL d   1       9.790   2.055  12.996 -0.09 -0.07    -0.303 OA
DOCKED: ATOM     18  H   UNL d   1       9.785   1.127  12.691 +0.06 +0.04    +0.222 HD
DOCKED: ENDBRANCH  15  17
DOCKED: BRANCH  15  19
DOCKED: ATOM     19  O   UNL d   1       8.103   3.234  11.637 -0.21 -0.16    -0.303 OA
DOCKED: ATOM     20  H   UNL d   1       7.799   4.160  11.667 +0.09 +0.09    +0.222 HD
DOCKED: ENDBRANCH  15  19
DOCKED: ENDBRANCH  14  15
DOCKED: ENDBRANCH   2  14
DOCKED: BRANCH   6  21
DOCKED: ATOM     21  O   UNL d   1       4.043  -0.230  15.336 -0.23 -0.04    -0.278 OA
DOCKED: BRANCH  21  22
DOCKED: ATOM     22  P   UNL d   1       4.318  -1.032  16.687 -0.12 +0.12    +0.473 P 
DOCKED: ATOM     23  O   UNL d   1       5.626  -1.734  16.837 -0.03 -0.01    -0.228 OA
DOCKED: BRANCH  22  24
DOCKED: ATOM     24  O   UNL d   1       4.025   0.077  17.790 -0.16 -0.06    -0.303 OA
DOCKED: ATOM     25  H   UNL d   1       4.531   0.894  17.547 +0.08 +0.00    +0.222 HD
DOCKED: ENDBRANCH  22  24
DOCKED: BRANCH  22  26
DOCKED: ATOM     26  O   UNL d   1       3.010  -1.954  16.790 -0.37 -0.33    -0.303 OA
DOCKED: ATOM     27  H   UNL d   1       2.568  -1.984  15.917 +0.05 +0.26    +0.222 HD
DOCKED: ENDBRANCH  22  26
DOCKED: ENDBRANCH  21  22
DOCKED: ENDBRANCH   6  21
DOCKED: BRANCH   3  28
DOCKED: ATOM     28  O   UNL d   1       8.842  -0.846  12.700 -0.20 +0.13    -0.278 OA
DOCKED: BRANCH  28  29
DOCKED: ATOM     29  P   UNL d   1      10.381  -1.012  13.077 -0.09 -0.09    +0.473 P 
DOCKED: ATOM     30  O   UNL d   1      10.863  -2.412  13.196 -0.59 +0.04    -0.228 OA
DOCKED: BRANCH  29  31
DOCKED: ATOM     31  O   UNL d   1      11.047  -0.109  11.936 -0.16 -0.01    -0.303 OA
DOCKED: ATOM     32  H   UNL d   1      11.384   0.720  12.348 +0.04 +0.05    +0.222 HD
DOCKED: ENDBRANCH  29  31
DOCKED: BRANCH  29  33
DOCKED: ATOM     33  O   UNL d   1      10.508  -0.094  14.371 -0.02 +0.02    -0.303 OA
DOCKED: ATOM     34  H   UNL d   1       9.913   0.689  14.270 +0.04 -0.01    +0.222 HD
DOCKED: ENDBRANCH  29  33
DOCKED: ENDBRANCH  28  29
DOCKED: ENDBRANCH   3  28
DOCKED: BRANCH   5  35
DOCKED: ATOM     35  O   UNL d   1       4.295  -1.728  12.842 -0.24 +0.04    -0.278 OA
DOCKED: BRANCH  35  36
DOCKED: ATOM     36  P   UNL d   1       2.889  -2.304  13.329 -0.23 +0.06    +0.473 P 
DOCKED: ATOM     37  O   UNL d   1       2.145  -3.125  12.325 -0.41 -0.00    -0.228 OA
DOCKED: BRANCH  36  38
DOCKED: ATOM     38  O   UNL d   1       3.301  -3.097  14.647 -0.11 -0.09    -0.303 OA
DOCKED: ATOM     39  H   UNL d   1       4.045  -2.630  15.084 +0.08 +0.04    +0.222 HD
DOCKED: ENDBRANCH  36  38
DOCKED: BRANCH  36  40
DOCKED: ATOM     40  O   UNL d   1       2.161  -1.001  13.879 -0.29 -0.07    -0.303 OA
DOCKED: ATOM     41  H   UNL d   1       2.181  -0.959  14.861 -0.37 +0.09    +0.222 HD
DOCKED: ENDBRANCH  36  40
DOCKED: ENDBRANCH  35  36
DOCKED: ENDBRANCH   5  35
DOCKED: BRANCH   4  42
DOCKED: ATOM     42  O   UNL d   1       6.924  -2.986  12.858 -0.17 +0.22    -0.278 OA
DOCKED: BRANCH  42  43
DOCKED: ATOM     43  P   UNL d   1       6.166  -4.029  13.798 -0.07 -0.27    +0.473 P 
DOCKED: ATOM     44  O   UNL d   1       5.774  -3.568  15.159 -0.04 +0.05    -0.228 OA
DOCKED: BRANCH  43  45
DOCKED: ATOM     45  O   UNL d   1       4.944  -4.493  12.891 -0.17 +0.17    -0.303 OA
DOCKED: ATOM     46  H   UNL d   1       4.234  -3.820  12.875 +0.12 -0.07    +0.222 HD
DOCKED: ENDBRANCH  43  45
DOCKED: BRANCH  43  47
DOCKED: ATOM     47  O   UNL d   1       7.115  -5.320  13.752 -0.03 +0.37    -0.303 OA
DOCKED: ATOM     48  H   UNL d   1       6.882  -5.864  12.971 -0.51 -0.58    +0.222 HD
DOCKED: ENDBRANCH  43  47
DOCKED: ENDBRANCH  42  43
DOCKED: ENDBRANCH   4  42
DOCKED: TORSDOF 24
DOCKED: TER
DOCKED: ENDMDL
________________________________________________________________________________


	BEGINNING GENETIC ALGORITHM DOCKING 95 of 100
Run: 95 Seed: 1553592494 1151463230 [ Run 95 of 100 GA/GALS ]
Beginning LAMARCKIAN GENETIC ALGORITHM (LGA), with a maximum of 25000000 energy evaluations.

Final-Value: -18.306


	FINAL GENETIC ALGORITHM DOCKED STATE
	_______________________________________________


Detailed state:  trans 6.409 13.820 -4.943 quatxyzw -0.183326 0.317137 0.396248 -0.841905 center 0.035 0.082 -0.065 ntor 24 128.5766 103.2621 33.2663 -43.1204 -80.5692 169.7625 180.0000 -39.3433 68.4816 -24.9452 152.6610 147.7694 -34.1441 -168.3472 29.8708 69.3159 107.0760 -126.9210 30.9452 -37.4482 -180.0000 -33.4337 -45.5169 155.2616
State:	  6.409  13.820  -4.943  -0.340  0.588  0.734 -65.316    128.58  103.26   33.27  -43.12  -80.57  169.76  180.00  -39.34   68.48  -24.95  152.66  147.77  -34.14 -168.35   29.87   69.32  107.08 -126.92   30.95  -37.45 -180.00  -33.43  -45.52  155.26

DOCKED: MODEL       95
DOCKED: USER    Run = 95
DOCKED: USER    DPF = D:/Protein_go_brrr/autodock/final/mut_D99N/IHP/dock.dpf
DOCKED: USER  
DOCKED: USER    Estimated Free Energy of Binding    =   +2.15 kcal/mol  [=(1)+(2)+(3)-(4)]
DOCKED: USER    
DOCKED: USER    (1) Final Intermolecular Energy     =   -5.01 kcal/mol
DOCKED: USER        vdW + Hbond + desolv Energy     =   -4.62 kcal/mol
DOCKED: USER        Electrostatic Energy            =   -0.39 kcal/mol
DOCKED: USER    (2) Final Total Internal Energy     =  -13.30 kcal/mol
DOCKED: USER    (3) Torsional Free Energy           =   +7.16 kcal/mol
DOCKED: USER    (4) Unbound System's Energy  [=(2)] =  -13.30 kcal/mol
DOCKED: USER    
DOCKED: USER    
DOCKED: USER    NEWDPF move IHP_ideal_opt.pdbqt
DOCKED: USER    NEWDPF about 0.035000 0.082000 -0.065000
DOCKED: USER    NEWDPF tran0 6.409255 13.820154 -4.942762
DOCKED: USER    NEWDPF quaternion0 -0.183326 0.317137 0.396248 -0.841905
DOCKED: USER    NEWDPF axisangle0 -0.339728 0.587696 0.734301 -65.316434
DOCKED: USER    NEWDPF quat0 -0.339728 0.587696 0.734301 -65.316434
DOCKED: USER    NEWDPF dihe0 128.58 103.26 33.27 -43.12 -80.57 169.76 180.00 -39.34 68.48 -24.95 152.66 147.77 -34.14 -168.35 29.87 69.32 107.08 -126.92 30.95 -37.45 -180.00 -33.43 -45.52 155.26 
DOCKED: USER  keepresnum = 1 
DOCKED: USER  
DOCKED: REMARK  24 active torsions:
DOCKED: REMARK  status: ('A' for Active; 'I' for Inactive)
DOCKED: REMARK    1  A    between atoms: C_1  and  O_7 
DOCKED: REMARK    2  A    between atoms: C_2  and  O_12 
DOCKED: REMARK    3  A    between atoms: C_3  and  O_17 
DOCKED: REMARK    4  A    between atoms: C_4  and  O_22 
DOCKED: REMARK    5  A    between atoms: C_5  and  O_27 
DOCKED: REMARK    6  A    between atoms: C_6  and  O_32 
DOCKED: REMARK    7  A    between atoms: O_7  and  P_8 
DOCKED: REMARK    8  A    between atoms: P_8  and  O_10 
DOCKED: REMARK    9  A    between atoms: P_8  and  O_11 
DOCKED: REMARK   10  A    between atoms: O_12  and  P_13 
DOCKED: REMARK   11  A    between atoms: P_13  and  O_15 
DOCKED: REMARK   12  A    between atoms: P_13  and  O_16 
DOCKED: REMARK   13  A    between atoms: O_17  and  P_18 
DOCKED: REMARK   14  A    between atoms: P_18  and  O_20 
DOCKED: REMARK   15  A    between atoms: P_18  and  O_21 
DOCKED: REMARK   16  A    between atoms: O_22  and  P_23 
DOCKED: REMARK   17  A    between atoms: P_23  and  O_25 
DOCKED: REMARK   18  A    between atoms: P_23  and  O_26 
DOCKED: REMARK   19  A    between atoms: O_27  and  P_28 
DOCKED: REMARK   20  A    between atoms: P_28  and  O_30 
DOCKED: REMARK   21  A    between atoms: P_28  and  O_31 
DOCKED: REMARK   22  A    between atoms: O_32  and  P_33 
DOCKED: REMARK   23  A    between atoms: P_33  and  O_35 
DOCKED: REMARK   24  A    between atoms: P_33  and  O_36 
DOCKED: USER                              x       y       z     vdW  Elec       q    Type
DOCKED: USER                           _______ _______ _______ _____ _____    ______ ____
DOCKED: ROOT
DOCKED: ATOM      1  C   UNL d   1       8.020  14.404  -5.164 -0.01 +0.03    +0.194 C 
DOCKED: ATOM      2  C   UNL d   1       7.901  13.012  -4.540 -0.06 +0.07    +0.194 C 
DOCKED: ATOM      3  C   UNL d   1       6.798  12.958  -3.481 -0.10 +0.07    +0.194 C 
DOCKED: ATOM      4  C   UNL d   1       5.455  13.482  -3.984 +0.03 +0.04    +0.194 C 
DOCKED: ATOM      5  C   UNL d   1       5.543  14.815  -4.715 -0.08 +0.01    +0.194 C 
DOCKED: ATOM      6  C   UNL d   1       6.685  14.890  -5.731 -0.03 +0.02    +0.194 C 
DOCKED: ENDROOT
DOCKED: BRANCH   1   7
DOCKED: ATOM      7  O   UNL d   1       8.943  14.327  -6.253 +0.00 -0.04    -0.278 OA
DOCKED: BRANCH   7   8
DOCKED: ATOM      8  P   UNL d   1      10.485  14.627  -5.964 +0.01 +0.04    +0.473 P 
DOCKED: ATOM      9  O   UNL d   1      10.883  14.561  -4.531 +0.00 -0.02    -0.228 OA
DOCKED: BRANCH   8  10
DOCKED: ATOM     10  O   UNL d   1      11.262  13.577  -6.880 +0.00 -0.03    -0.303 OA
DOCKED: ATOM     11  H   UNL d   1      10.715  12.777  -6.996 +0.01 +0.03    +0.222 HD
DOCKED: ENDBRANCH   8  10
DOCKED: BRANCH   8  12
DOCKED: ATOM     12  O   UNL d   1      10.785  16.000  -6.705 +0.00 -0.02    -0.303 OA
DOCKED: ATOM     13  H   UNL d   1      10.210  16.737  -6.399 +0.00 +0.01    +0.222 HD
DOCKED: ENDBRANCH   8  12
DOCKED: ENDBRANCH   7   8
DOCKED: ENDBRANCH   1   7
DOCKED: BRANCH   2  14
DOCKED: ATOM     14  O   UNL d   1       7.593  12.064  -5.570 -0.40 -0.23    -0.278 OA
DOCKED: BRANCH  14  15
DOCKED: ATOM     15  P   UNL d   1       8.833  11.298  -6.232 -0.03 +0.24    +0.473 P 
DOCKED: ATOM     16  O   UNL d   1       9.124  11.605  -7.668 -0.03 -0.07    -0.228 OA
DOCKED: BRANCH  15  17
DOCKED: ATOM     17  O   UNL d   1      10.056  11.635  -5.269 -0.00 -0.07    -0.303 OA
DOCKED: ATOM     18  H   UNL d   1      10.240  12.594  -5.255 +0.01 +0.04    +0.222 HD
DOCKED: ENDBRANCH  15  17
DOCKED: BRANCH  15  19
DOCKED: ATOM     19  O   UNL d   1       8.576   9.764  -5.897 -0.46 -0.27    -0.303 OA
DOCKED: ATOM     20  H   UNL d   1       9.143   9.454  -5.167 +0.04 +0.11    +0.222 HD
DOCKED: ENDBRANCH  15  19
DOCKED: ENDBRANCH  14  15
DOCKED: ENDBRANCH   2  14
DOCKED: BRANCH   6  21
DOCKED: ATOM     21  O   UNL d   1       6.850  16.267  -6.065 +0.00 -0.01    -0.278 OA
DOCKED: BRANCH  21  22
DOCKED: ATOM     22  P   UNL d   1       7.609  17.241  -5.056 +0.01 +0.02    +0.473 P 
DOCKED: ATOM     23  O   UNL d   1       9.025  16.929  -4.706 +0.00 -0.01    -0.228 OA
DOCKED: BRANCH  22  24
DOCKED: ATOM     24  O   UNL d   1       7.389  18.659  -5.746 +0.00 -0.01    -0.303 OA
DOCKED: ATOM     25  H   UNL d   1       8.190  19.216  -5.568 +0.00 +0.00    +0.222 HD
DOCKED: ENDBRANCH  22  24
DOCKED: BRANCH  22  26
DOCKED: ATOM     26  O   UNL d   1       6.580  17.306  -3.829 +0.00 -0.01    -0.303 OA
DOCKED: ATOM     27  H   UNL d   1       5.771  16.807  -4.061 +0.02 +0.00    +0.222 HD
DOCKED: ENDBRANCH  22  26
DOCKED: ENDBRANCH  21  22
DOCKED: ENDBRANCH   6  21
DOCKED: BRANCH   3  28
DOCKED: ATOM     28  O   UNL d   1       6.575  11.590  -3.164 -0.51 -0.16    -0.278 OA
DOCKED: BRANCH  28  29
DOCKED: ATOM     29  P   UNL d   1       7.590  10.808  -2.218 -0.13 +0.17    +0.473 P 
DOCKED: ATOM     30  O   UNL d   1       8.045  11.551  -1.014 -0.44 -0.10    -0.228 OA
DOCKED: BRANCH  29  31
DOCKED: ATOM     31  O   UNL d   1       6.759   9.463  -1.970 -0.67 -0.11    -0.303 OA
DOCKED: ATOM     32  H   UNL d   1       6.710   9.298  -1.000 -0.41 -0.03    +0.222 HD
DOCKED: ENDBRANCH  29  31
DOCKED: BRANCH  29  33
DOCKED: ATOM     33  O   UNL d   1       8.714  10.343  -3.244 -0.09 -0.11    -0.303 OA
DOCKED: ATOM     34  H   UNL d   1       8.660  10.905  -4.056 +0.05 +0.10    +0.222 HD
DOCKED: ENDBRANCH  29  33
DOCKED: ENDBRANCH  28  29
DOCKED: ENDBRANCH   3  28
DOCKED: BRANCH   5  35
DOCKED: ATOM     35  O   UNL d   1       4.324  14.938  -5.445 -0.11 +0.06    -0.278 OA
DOCKED: BRANCH  35  36
DOCKED: ATOM     36  P   UNL d   1       3.021  15.530  -4.741 -0.06 -0.11    +0.473 P 
DOCKED: ATOM     37  O   UNL d   1       2.056  16.224  -5.648 -0.07 +0.04    -0.228 OA
DOCKED: BRANCH  36  38
DOCKED: ATOM     38  O   UNL d   1       2.428  14.241  -4.017 -0.12 +0.15    -0.303 OA
DOCKED: ATOM     39  H   UNL d   1       2.996  13.467  -4.223 -0.45 -0.23    +0.222 HD
DOCKED: ENDBRANCH  36  38
DOCKED: BRANCH  36  40
DOCKED: ATOM     40  O   UNL d   1       3.637  16.386  -3.551 -0.03 +0.02    -0.303 OA
DOCKED: ATOM     41  H   UNL d   1       4.079  15.816  -2.882 +0.06 -0.01    +0.222 HD
DOCKED: ENDBRANCH  36  40
DOCKED: ENDBRANCH  35  36
DOCKED: ENDBRANCH   5  35
DOCKED: BRANCH   4  42
DOCKED: ATOM     42  O   UNL d   1       4.632  13.688  -2.831 -0.18 -0.00    -0.278 OA
DOCKED: BRANCH  42  43
DOCKED: ATOM     43  P   UNL d   1       5.264  14.396  -1.549 -0.14 +0.03    +0.473 P 
DOCKED: ATOM     44  O   UNL d   1       6.075  13.551  -0.628 -0.19 -0.03    -0.228 OA
DOCKED: BRANCH  43  45
DOCKED: ATOM     45  O   UNL d   1       6.062  15.618  -2.183 -0.03 -0.01    -0.303 OA
DOCKED: ATOM     46  H   UNL d   1       5.464  16.361  -2.401 +0.04 +0.01    +0.222 HD
DOCKED: ENDBRANCH  43  45
DOCKED: BRANCH  43  47
DOCKED: ATOM     47  O   UNL d   1       4.008  15.137  -0.883 -0.18 -0.01    -0.303 OA
DOCKED: ATOM     48  H   UNL d   1       3.396  15.431  -1.589 +0.08 +0.00    +0.222 HD
DOCKED: ENDBRANCH  43  47
DOCKED: ENDBRANCH  42  43
DOCKED: ENDBRANCH   4  42
DOCKED: TORSDOF 24
DOCKED: TER
DOCKED: ENDMDL
________________________________________________________________________________


	BEGINNING GENETIC ALGORITHM DOCKING 96 of 100
Run: 96 Seed: 307236717 240686666 [ Run 96 of 100 GA/GALS ]
Beginning LAMARCKIAN GENETIC ALGORITHM (LGA), with a maximum of 25000000 energy evaluations.

Final-Value: -15.366


	FINAL GENETIC ALGORITHM DOCKED STATE
	_______________________________________________


Detailed state:  trans -6.539 -14.299 -0.908 quatxyzw -0.561666 -0.570521 -0.560345 -0.212249 center 0.035 0.082 -0.065 ntor 24 170.2334 119.5620 -179.0882 -1.7892 172.2663 124.1851 -14.1177 -113.9641 -50.9934 111.0687 112.4208 99.7951 -7.7025 87.7402 -117.1680 -121.4722 36.4714 64.8268 -28.9364 -47.4573 154.9761 25.2329 -171.1256 -179.8509
State:	 -6.539 -14.299  -0.908  -0.575 -0.584 -0.573 -155.492    170.23  119.56 -179.09   -1.79  172.27  124.19  -14.12 -113.96  -50.99  111.07  112.42   99.80   -7.70   87.74 -117.17 -121.47   36.47   64.83  -28.94  -47.46  154.98   25.23 -171.13 -179.85

DOCKED: MODEL       96
DOCKED: USER    Run = 96
DOCKED: USER    DPF = D:/Protein_go_brrr/autodock/final/mut_D99N/IHP/dock.dpf
DOCKED: USER  
DOCKED: USER    Estimated Free Energy of Binding    =   +3.07 kcal/mol  [=(1)+(2)+(3)-(4)]
DOCKED: USER    
DOCKED: USER    (1) Final Intermolecular Energy     =   -4.09 kcal/mol
DOCKED: USER        vdW + Hbond + desolv Energy     =   -3.39 kcal/mol
DOCKED: USER        Electrostatic Energy            =   -0.70 kcal/mol
DOCKED: USER    (2) Final Total Internal Energy     =  -11.28 kcal/mol
DOCKED: USER    (3) Torsional Free Energy           =   +7.16 kcal/mol
DOCKED: USER    (4) Unbound System's Energy  [=(2)] =  -11.28 kcal/mol
DOCKED: USER    
DOCKED: USER    
DOCKED: USER    NEWDPF move IHP_ideal_opt.pdbqt
DOCKED: USER    NEWDPF about 0.035000 0.082000 -0.065000
DOCKED: USER    NEWDPF tran0 -6.538550 -14.299214 -0.908113
DOCKED: USER    NEWDPF quaternion0 -0.561666 -0.570521 -0.560345 -0.212249
DOCKED: USER    NEWDPF axisangle0 -0.574762 -0.583823 -0.573410 -155.491649
DOCKED: USER    NEWDPF quat0 -0.574762 -0.583823 -0.573410 -155.491649
DOCKED: USER    NEWDPF dihe0 170.23 119.56 -179.09 -1.79 172.27 124.19 -14.12 -113.96 -50.99 111.07 112.42 99.80 -7.70 87.74 -117.17 -121.47 36.47 64.83 -28.94 -47.46 154.98 25.23 -171.13 -179.85 
DOCKED: USER  keepresnum = 1 
DOCKED: USER  
DOCKED: REMARK  24 active torsions:
DOCKED: REMARK  status: ('A' for Active; 'I' for Inactive)
DOCKED: REMARK    1  A    between atoms: C_1  and  O_7 
DOCKED: REMARK    2  A    between atoms: C_2  and  O_12 
DOCKED: REMARK    3  A    between atoms: C_3  and  O_17 
DOCKED: REMARK    4  A    between atoms: C_4  and  O_22 
DOCKED: REMARK    5  A    between atoms: C_5  and  O_27 
DOCKED: REMARK    6  A    between atoms: C_6  and  O_32 
DOCKED: REMARK    7  A    between atoms: O_7  and  P_8 
DOCKED: REMARK    8  A    between atoms: P_8  and  O_10 
DOCKED: REMARK    9  A    between atoms: P_8  and  O_11 
DOCKED: REMARK   10  A    between atoms: O_12  and  P_13 
DOCKED: REMARK   11  A    between atoms: P_13  and  O_15 
DOCKED: REMARK   12  A    between atoms: P_13  and  O_16 
DOCKED: REMARK   13  A    between atoms: O_17  and  P_18 
DOCKED: REMARK   14  A    between atoms: P_18  and  O_20 
DOCKED: REMARK   15  A    between atoms: P_18  and  O_21 
DOCKED: REMARK   16  A    between atoms: O_22  and  P_23 
DOCKED: REMARK   17  A    between atoms: P_23  and  O_25 
DOCKED: REMARK   18  A    between atoms: P_23  and  O_26 
DOCKED: REMARK   19  A    between atoms: O_27  and  P_28 
DOCKED: REMARK   20  A    between atoms: P_28  and  O_30 
DOCKED: REMARK   21  A    between atoms: P_28  and  O_31 
DOCKED: REMARK   22  A    between atoms: O_32  and  P_33 
DOCKED: REMARK   23  A    between atoms: P_33  and  O_35 
DOCKED: REMARK   24  A    between atoms: P_33  and  O_36 
DOCKED: USER                              x       y       z     vdW  Elec       q    Type
DOCKED: USER                           _______ _______ _______ _____ _____    ______ ____
DOCKED: ROOT
DOCKED: ATOM      1  C   UNL d   1      -7.362 -12.870  -0.395 -0.09 -0.15    +0.194 C 
DOCKED: ATOM      2  C   UNL d   1      -7.863 -13.489  -1.701 +0.01 -0.19    +0.194 C 
DOCKED: ATOM      3  C   UNL d   1      -6.706 -13.928  -2.601 +0.00 -0.18    +0.194 C 
DOCKED: ATOM      4  C   UNL d   1      -5.697 -14.824  -1.887 -0.05 -0.08    +0.194 C 
DOCKED: ATOM      5  C   UNL d   1      -5.256 -14.302  -0.526 -0.05 -0.06    +0.194 C 
DOCKED: ATOM      6  C   UNL d   1      -6.408 -13.805   0.349 -0.04 -0.06    +0.194 C 
DOCKED: ENDROOT
DOCKED: BRANCH   1   7
DOCKED: ATOM      7  O   UNL d   1      -8.490 -12.647   0.455 -0.04 +0.13    -0.278 OA
DOCKED: BRANCH   7   8
DOCKED: ATOM      8  P   UNL d   1      -8.419 -11.453   1.513 -0.03 -0.14    +0.473 P 
DOCKED: ATOM      9  O   UNL d   1      -7.860 -10.178   0.989 -0.19 +0.10    -0.228 OA
DOCKED: BRANCH   8  10
DOCKED: ATOM     10  O   UNL d   1      -9.919 -11.313   2.039 -0.01 +0.05    -0.303 OA
DOCKED: ATOM     11  H   UNL d   1     -10.440 -12.085   1.751 +0.01 -0.04    +0.222 HD
DOCKED: ENDBRANCH   8  10
DOCKED: BRANCH   8  12
DOCKED: ATOM     12  O   UNL d   1      -7.679 -12.067   2.779 -0.02 +0.03    -0.303 OA
DOCKED: ATOM     13  H   UNL d   1      -6.712 -12.183   2.641 +0.06 -0.03    +0.222 HD
DOCKED: ENDBRANCH   8  12
DOCKED: ENDBRANCH   7   8
DOCKED: ENDBRANCH   1   7
DOCKED: BRANCH   2  14
DOCKED: ATOM     14  O   UNL d   1      -8.666 -14.636  -1.396 -0.02 +0.12    -0.278 OA
DOCKED: BRANCH  14  15
DOCKED: ATOM     15  P   UNL d   1     -10.204 -14.361  -1.047 -0.00 -0.14    +0.473 P 
DOCKED: ATOM     16  O   UNL d   1     -11.195 -15.370  -1.537 -0.00 +0.04    -0.228 OA
DOCKED: BRANCH  15  17
DOCKED: ATOM     17  O   UNL d   1     -10.219 -14.201   0.538 +0.00 +0.06    -0.303 OA
DOCKED: ATOM     18  H   UNL d   1     -10.007 -13.284   0.800 +0.01 -0.05    +0.222 HD
DOCKED: ENDBRANCH  15  17
DOCKED: BRANCH  15  19
DOCKED: ATOM     19  O   UNL d   1     -10.458 -12.864  -1.522 -0.04 +0.16    -0.303 OA
DOCKED: ATOM     20  H   UNL d   1      -9.893 -12.233  -1.040 +0.03 -0.16    +0.222 HD
DOCKED: ENDBRANCH  15  19
DOCKED: ENDBRANCH  14  15
DOCKED: ENDBRANCH   2  14
DOCKED: BRANCH   6  21
DOCKED: ATOM     21  O   UNL d   1      -5.825 -13.050   1.409 -0.04 +0.06    -0.278 OA
DOCKED: BRANCH  21  22
DOCKED: ATOM     22  P   UNL d   1      -4.806 -11.869   1.072 -0.13 -0.10    +0.473 P 
DOCKED: ATOM     23  O   UNL d   1      -3.363 -12.208   0.909 -0.32 -0.00    -0.228 OA
DOCKED: BRANCH  22  24
DOCKED: ATOM     24  O   UNL d   1      -5.485 -11.209  -0.207 -0.26 +0.21    -0.303 OA
DOCKED: ATOM     25  H   UNL d   1      -5.891 -10.348   0.070 -0.27 -0.16    +0.222 HD
DOCKED: ENDBRANCH  22  24
DOCKED: BRANCH  22  26
DOCKED: ATOM     26  O   UNL d   1      -5.153 -10.803   2.219 -0.10 +0.02    -0.303 OA
DOCKED: ATOM     27  H   UNL d   1      -6.121 -10.661   2.243 +0.10 -0.02    +0.222 HD
DOCKED: ENDBRANCH  22  26
DOCKED: ENDBRANCH  21  22
DOCKED: ENDBRANCH   6  21
DOCKED: BRANCH   3  28
DOCKED: ATOM     28  O   UNL d   1      -7.253 -14.729  -3.641 -0.06 +0.16    -0.278 OA
DOCKED: BRANCH  28  29
DOCKED: ATOM     29  P   UNL d   1      -6.781 -14.521  -5.148 -0.10 -0.21    +0.473 P 
DOCKED: ATOM     30  O   UNL d   1      -7.815 -14.775  -6.184 -0.11 +0.06    -0.228 OA
DOCKED: BRANCH  29  31
DOCKED: ATOM     31  O   UNL d   1      -6.196 -13.034  -5.055 -0.26 +0.27    -0.303 OA
DOCKED: ATOM     32  H   UNL d   1      -5.744 -12.928  -4.186 -0.29 -0.28    +0.222 HD
DOCKED: ENDBRANCH  29  31
DOCKED: BRANCH  29  33
DOCKED: ATOM     33  O   UNL d   1      -5.464 -15.413  -5.212 -0.06 +0.07    -0.303 OA
DOCKED: ATOM     34  H   UNL d   1      -4.847 -15.127  -4.494 +0.06 -0.06    +0.222 HD
DOCKED: ENDBRANCH  29  33
DOCKED: ENDBRANCH  28  29
DOCKED: ENDBRANCH   3  28
DOCKED: BRANCH   5  35
DOCKED: ATOM     35  O   UNL d   1      -4.669 -15.415   0.144 -0.00 +0.04    -0.278 OA
DOCKED: BRANCH  35  36
DOCKED: ATOM     36  P   UNL d   1      -5.330 -16.862   0.031 +0.01 -0.05    +0.473 P 
DOCKED: ATOM     37  O   UNL d   1      -5.008 -17.623  -1.216 -0.00 +0.02    -0.228 OA
DOCKED: BRANCH  36  38
DOCKED: ATOM     38  O   UNL d   1      -4.823 -17.558   1.371 +0.00 +0.02    -0.303 OA
DOCKED: ATOM     39  H   UNL d   1      -4.311 -18.363   1.141 +0.00 -0.01    +0.222 HD
DOCKED: ENDBRANCH  36  38
DOCKED: BRANCH  36  40
DOCKED: ATOM     40  O   UNL d   1      -6.865 -16.558   0.315 +0.00 +0.04    -0.303 OA
DOCKED: ATOM     41  H   UNL d   1      -7.278 -16.052  -0.420 +0.01 -0.04    +0.222 HD
DOCKED: ENDBRANCH  36  40
DOCKED: ENDBRANCH  35  36
DOCKED: ENDBRANCH   5  35
DOCKED: BRANCH   4  42
DOCKED: ATOM     42  O   UNL d   1      -4.531 -14.877  -2.716 -0.05 +0.08    -0.278 OA
DOCKED: BRANCH  42  43
DOCKED: ATOM     43  P   UNL d   1      -3.638 -13.565  -2.876 -0.13 -0.15    +0.473 P 
DOCKED: ATOM     44  O   UNL d   1      -2.287 -13.573  -2.249 -0.19 +0.03    -0.228 OA
DOCKED: BRANCH  43  45
DOCKED: ATOM     45  O   UNL d   1      -3.624 -13.342  -4.451 -0.24 +0.12    -0.303 OA
DOCKED: ATOM     46  H   UNL d   1      -4.496 -13.536  -4.848 +0.10 -0.09    +0.222 HD
DOCKED: ENDBRANCH  43  45
DOCKED: BRANCH  43  47
DOCKED: ATOM     47  O   UNL d   1      -4.618 -12.394  -2.390 -0.23 +0.24    -0.303 OA
DOCKED: ATOM     48  H   UNL d   1      -5.220 -12.151  -3.124 -0.40 -0.38    +0.222 HD
DOCKED: ENDBRANCH  43  47
DOCKED: ENDBRANCH  42  43
DOCKED: ENDBRANCH   4  42
DOCKED: TORSDOF 24
DOCKED: TER
DOCKED: ENDMDL
________________________________________________________________________________


	BEGINNING GENETIC ALGORITHM DOCKING 97 of 100
Run: 97 Seed: 771771332 41081071 [ Run 97 of 100 GA/GALS ]
Beginning LAMARCKIAN GENETIC ALGORITHM (LGA), with a maximum of 25000000 energy evaluations.

Final-Value: -16.702


	FINAL GENETIC ALGORITHM DOCKED STATE
	_______________________________________________


Detailed state:  trans -12.356 3.525 -19.859 quatxyzw 0.067090 -0.782722 -0.014851 -0.618566 center 0.035 0.082 -0.065 ntor 24 108.4803 145.8816 101.1023 128.3384 130.4600 70.6568 -92.2576 -21.7332 34.8851 31.1627 131.0657 105.3875 130.2854 -50.6802 -112.9738 54.6263 159.8540 -121.5216 -6.0832 -14.9166 -8.5440 159.7110 -17.5397 162.6272
State:	-12.356   3.525 -19.859   0.085 -0.996 -0.019 -103.577    108.48  145.88  101.10  128.34  130.46   70.66  -92.26  -21.73   34.89   31.16  131.07  105.39  130.29  -50.68 -112.97   54.63  159.85 -121.52   -6.08  -14.92   -8.54  159.71  -17.54  162.63

DOCKED: MODEL       97
DOCKED: USER    Run = 97
DOCKED: USER    DPF = D:/Protein_go_brrr/autodock/final/mut_D99N/IHP/dock.dpf
DOCKED: USER  
DOCKED: USER    Estimated Free Energy of Binding    =   +2.81 kcal/mol  [=(1)+(2)+(3)-(4)]
DOCKED: USER    
DOCKED: USER    (1) Final Intermolecular Energy     =   -4.35 kcal/mol
DOCKED: USER        vdW + Hbond + desolv Energy     =   -3.83 kcal/mol
DOCKED: USER        Electrostatic Energy            =   -0.52 kcal/mol
DOCKED: USER    (2) Final Total Internal Energy     =  -12.35 kcal/mol
DOCKED: USER    (3) Torsional Free Energy           =   +7.16 kcal/mol
DOCKED: USER    (4) Unbound System's Energy  [=(2)] =  -12.35 kcal/mol
DOCKED: USER    
DOCKED: USER    
DOCKED: USER    NEWDPF move IHP_ideal_opt.pdbqt
DOCKED: USER    NEWDPF about 0.035000 0.082000 -0.065000
DOCKED: USER    NEWDPF tran0 -12.355639 3.525254 -19.858571
DOCKED: USER    NEWDPF quaternion0 0.067090 -0.782722 -0.014851 -0.618566
DOCKED: USER    NEWDPF axisangle0 0.085386 -0.996169 -0.018901 -103.577007
DOCKED: USER    NEWDPF quat0 0.085386 -0.996169 -0.018901 -103.577007
DOCKED: USER    NEWDPF dihe0 108.48 145.88 101.10 128.34 130.46 70.66 -92.26 -21.73 34.89 31.16 131.07 105.39 130.29 -50.68 -112.97 54.63 159.85 -121.52 -6.08 -14.92 -8.54 159.71 -17.54 162.63 
DOCKED: USER  keepresnum = 1 
DOCKED: USER  
DOCKED: REMARK  24 active torsions:
DOCKED: REMARK  status: ('A' for Active; 'I' for Inactive)
DOCKED: REMARK    1  A    between atoms: C_1  and  O_7 
DOCKED: REMARK    2  A    between atoms: C_2  and  O_12 
DOCKED: REMARK    3  A    between atoms: C_3  and  O_17 
DOCKED: REMARK    4  A    between atoms: C_4  and  O_22 
DOCKED: REMARK    5  A    between atoms: C_5  and  O_27 
DOCKED: REMARK    6  A    between atoms: C_6  and  O_32 
DOCKED: REMARK    7  A    between atoms: O_7  and  P_8 
DOCKED: REMARK    8  A    between atoms: P_8  and  O_10 
DOCKED: REMARK    9  A    between atoms: P_8  and  O_11 
DOCKED: REMARK   10  A    between atoms: O_12  and  P_13 
DOCKED: REMARK   11  A    between atoms: P_13  and  O_15 
DOCKED: REMARK   12  A    between atoms: P_13  and  O_16 
DOCKED: REMARK   13  A    between atoms: O_17  and  P_18 
DOCKED: REMARK   14  A    between atoms: P_18  and  O_20 
DOCKED: REMARK   15  A    between atoms: P_18  and  O_21 
DOCKED: REMARK   16  A    between atoms: O_22  and  P_23 
DOCKED: REMARK   17  A    between atoms: P_23  and  O_25 
DOCKED: REMARK   18  A    between atoms: P_23  and  O_26 
DOCKED: REMARK   19  A    between atoms: O_27  and  P_28 
DOCKED: REMARK   20  A    between atoms: P_28  and  O_30 
DOCKED: REMARK   21  A    between atoms: P_28  and  O_31 
DOCKED: REMARK   22  A    between atoms: O_32  and  P_33 
DOCKED: REMARK   23  A    between atoms: P_33  and  O_35 
DOCKED: REMARK   24  A    between atoms: P_33  and  O_36 
DOCKED: USER                              x       y       z     vdW  Elec       q    Type
DOCKED: USER                           _______ _______ _______ _____ _____    ______ ____
DOCKED: ROOT
DOCKED: ATOM      1  C   UNL d   1     -13.329   2.444 -18.927 -0.07 +0.04    +0.194 C 
DOCKED: ATOM      2  C   UNL d   1     -12.620   1.823 -20.132 -0.05 +0.04    +0.194 C 
DOCKED: ATOM      3  C   UNL d   1     -12.703   2.726 -21.365 -0.01 +0.02    +0.194 C 
DOCKED: ATOM      4  C   UNL d   1     -12.241   4.156 -21.097 -0.01 +0.01    +0.194 C 
DOCKED: ATOM      5  C   UNL d   1     -12.836   4.774 -19.838 -0.04 -0.01    +0.194 C 
DOCKED: ATOM      6  C   UNL d   1     -12.809   3.848 -18.620 -0.09 +0.01    +0.194 C 
DOCKED: ENDROOT
DOCKED: BRANCH   1   7
DOCKED: ATOM      7  O   UNL d   1     -13.059   1.630 -17.783 -0.36 -0.12    -0.278 OA
DOCKED: BRANCH   7   8
DOCKED: ATOM      8  P   UNL d   1     -14.292   1.136 -16.896 -0.09 +0.28    +0.473 P 
DOCKED: ATOM      9  O   UNL d   1     -13.926   0.331 -15.699 -0.17 -0.17    -0.228 OA
DOCKED: BRANCH   8  10
DOCKED: ATOM     10  O   UNL d   1     -15.072   2.480 -16.534 -0.33 -0.28    -0.303 OA
DOCKED: ATOM     11  H   UNL d   1     -14.442   3.141 -16.193 +0.06 +0.16    +0.222 HD
DOCKED: ENDBRANCH   8  10
DOCKED: BRANCH   8  12
DOCKED: ATOM     12  O   UNL d   1     -15.287   0.440 -17.921 -0.02 -0.11    -0.303 OA
DOCKED: ATOM     13  H   UNL d   1     -15.226  -0.542 -17.912 +0.03 +0.06    +0.222 HD
DOCKED: ENDBRANCH   8  12
DOCKED: ENDBRANCH   7   8
DOCKED: ENDBRANCH   1   7
DOCKED: BRANCH   2  14
DOCKED: ATOM     14  O   UNL d   1     -11.239   1.621 -19.808 -0.18 -0.12    -0.278 OA
DOCKED: BRANCH  14  15
DOCKED: ATOM     15  P   UNL d   1     -10.722   0.105 -19.791 -0.08 +0.23    +0.473 P 
DOCKED: ATOM     16  O   UNL d   1     -11.700  -0.943 -20.223 -0.03 -0.06    -0.228 OA
DOCKED: BRANCH  15  17
DOCKED: ATOM     17  O   UNL d   1      -9.409   0.133 -20.692 -0.07 -0.19    -0.303 OA
DOCKED: ATOM     18  H   UNL d   1      -9.186   1.045 -20.961 +0.03 +0.16    +0.222 HD
DOCKED: ENDBRANCH  15  17
DOCKED: BRANCH  15  19
DOCKED: ATOM     19  O   UNL d   1     -10.108  -0.089 -18.337 -0.26 -0.23    -0.303 OA
DOCKED: ATOM     20  H   UNL d   1     -10.799  -0.073 -17.648 +0.06 +0.16    +0.222 HD
DOCKED: ENDBRANCH  15  19
DOCKED: ENDBRANCH  14  15
DOCKED: ENDBRANCH   2  14
DOCKED: BRANCH   6  21
DOCKED: ATOM     21  O   UNL d   1     -13.686   4.417 -17.651 -0.10 +0.02    -0.278 OA
DOCKED: BRANCH  21  22
DOCKED: ATOM     22  P   UNL d   1     -13.087   5.039 -16.309 -0.26 -0.19    +0.473 P 
DOCKED: ATOM     23  O   UNL d   1     -12.775   4.115 -15.181 -0.40 -0.01    -0.228 OA
DOCKED: BRANCH  22  24
DOCKED: ATOM     24  O   UNL d   1     -11.842   5.863 -16.861 -0.29 +0.28    -0.303 OA
DOCKED: ATOM     25  H   UNL d   1     -12.185   6.588 -17.443 -0.16 -0.31    +0.222 HD
DOCKED: ENDBRANCH  22  24
DOCKED: BRANCH  22  26
DOCKED: ATOM     26  O   UNL d   1     -14.141   6.205 -15.992 -0.18 +0.27    -0.303 OA
DOCKED: ATOM     27  H   UNL d   1     -13.750   7.068 -16.239 -0.46 -0.54    +0.222 HD
DOCKED: ENDBRANCH  22  26
DOCKED: ENDBRANCH  21  22
DOCKED: ENDBRANCH   6  21
DOCKED: BRANCH   3  28
DOCKED: ATOM     28  O   UNL d   1     -11.798   2.212 -22.334 -0.00 -0.04    -0.278 OA
DOCKED: BRANCH  28  29
DOCKED: ATOM     29  P   UNL d   1     -10.285   2.709 -22.364 +0.01 +0.12    +0.473 P 
DOCKED: ATOM     30  O   UNL d   1      -9.727   3.142 -21.057 -0.06 -0.10    -0.228 OA
DOCKED: BRANCH  29  31
DOCKED: ATOM     31  O   UNL d   1      -9.591   1.450 -23.068 +0.00 -0.08    -0.303 OA
DOCKED: ATOM     32  H   UNL d   1      -9.991   0.627 -22.703 +0.01 +0.06    +0.222 HD
DOCKED: ENDBRANCH  29  31
DOCKED: BRANCH  29  33
DOCKED: ATOM     33  O   UNL d   1     -10.312   3.793 -23.530 +0.00 -0.04    -0.303 OA
DOCKED: ATOM     34  H   UNL d   1     -11.167   4.287 -23.489 +0.01 +0.02    +0.222 HD
DOCKED: ENDBRANCH  29  33
DOCKED: ENDBRANCH  28  29
DOCKED: ENDBRANCH   3  28
DOCKED: BRANCH   5  35
DOCKED: ATOM     35  O   UNL d   1     -12.012   5.897 -19.531 -0.07 +0.07    -0.278 OA
DOCKED: BRANCH  35  36
DOCKED: ATOM     36  P   UNL d   1     -12.595   7.377 -19.642 -0.05 -0.31    +0.473 P 
DOCKED: ATOM     37  O   UNL d   1     -11.580   8.455 -19.859 -0.13 +0.16    -0.228 OA
DOCKED: BRANCH  36  38
DOCKED: ATOM     38  O   UNL d   1     -13.650   7.225 -20.825 -0.01 +0.09    -0.303 OA
DOCKED: ATOM     39  H   UNL d   1     -13.305   6.583 -21.482 +0.02 -0.04    +0.222 HD
DOCKED: ENDBRANCH  36  38
DOCKED: BRANCH  36  40
DOCKED: ATOM     40  O   UNL d   1     -13.496   7.487 -18.337 +0.03 +0.43    -0.303 OA
DOCKED: ATOM     41  H   UNL d   1     -13.608   6.614 -17.898 -0.08 -0.24    +0.222 HD
DOCKED: ENDBRANCH  36  40
DOCKED: ENDBRANCH  35  36
DOCKED: ENDBRANCH   5  35
DOCKED: BRANCH   4  42
DOCKED: ATOM     42  O   UNL d   1     -12.681   4.949 -22.204 +0.00 +0.00    -0.278 OA
DOCKED: BRANCH  42  43
DOCKED: ATOM     43  P   UNL d   1     -14.212   4.877 -22.644 +0.01 -0.01    +0.473 P 
DOCKED: ATOM     44  O   UNL d   1     -14.656   3.669 -23.395 +0.00 -0.00    -0.228 OA
DOCKED: BRANCH  43  45
DOCKED: ATOM     45  O   UNL d   1     -14.981   5.108 -21.270 +0.00 +0.02    -0.303 OA
DOCKED: ATOM     46  H   UNL d   1     -14.731   5.959 -20.858 +0.01 -0.03    +0.222 HD
DOCKED: ENDBRANCH  43  45
DOCKED: BRANCH  43  47
DOCKED: ATOM     47  O   UNL d   1     -14.446   6.278 -23.387 +0.00 +0.01    -0.303 OA
DOCKED: ATOM     48  H   UNL d   1     -14.515   6.990 -22.718 +0.00 -0.02    +0.222 HD
DOCKED: ENDBRANCH  43  47
DOCKED: ENDBRANCH  42  43
DOCKED: ENDBRANCH   4  42
DOCKED: TORSDOF 24
DOCKED: TER
DOCKED: ENDMDL
________________________________________________________________________________


	BEGINNING GENETIC ALGORITHM DOCKING 98 of 100
Run: 98 Seed: 975754994 69136776 [ Run 98 of 100 GA/GALS ]
Beginning LAMARCKIAN GENETIC ALGORITHM (LGA), with a maximum of 25000000 energy evaluations.

Final-Value: -17.392


	FINAL GENETIC ALGORITHM DOCKED STATE
	_______________________________________________


Detailed state:  trans 6.430 0.683 20.487 quatxyzw -0.227369 -0.083315 -0.679586 -0.692478 center 0.035 0.082 -0.065 ntor 24 138.8241 132.9601 73.4215 99.0917 -24.6042 -155.3393 -97.1649 -38.3069 120.1996 1.6070 9.6976 169.8382 137.7515 128.9911 -10.5064 66.2275 -116.1917 -145.5827 22.6129 -8.5089 166.3401 156.5583 141.2821 -51.4834
State:	  6.430   0.683  20.487  -0.315 -0.115 -0.942 -92.347    138.82  132.96   73.42   99.09  -24.60 -155.34  -97.16  -38.31  120.20    1.61    9.70  169.84  137.75  128.99  -10.51   66.23 -116.19 -145.58   22.61   -8.51  166.34  156.56  141.28  -51.48

DOCKED: MODEL       98
DOCKED: USER    Run = 98
DOCKED: USER    DPF = D:/Protein_go_brrr/autodock/final/mut_D99N/IHP/dock.dpf
DOCKED: USER  
DOCKED: USER    Estimated Free Energy of Binding    =   +3.22 kcal/mol  [=(1)+(2)+(3)-(4)]
DOCKED: USER    
DOCKED: USER    (1) Final Intermolecular Energy     =   -3.94 kcal/mol
DOCKED: USER        vdW + Hbond + desolv Energy     =   -3.32 kcal/mol
DOCKED: USER        Electrostatic Energy            =   -0.61 kcal/mol
DOCKED: USER    (2) Final Total Internal Energy     =  -13.46 kcal/mol
DOCKED: USER    (3) Torsional Free Energy           =   +7.16 kcal/mol
DOCKED: USER    (4) Unbound System's Energy  [=(2)] =  -13.46 kcal/mol
DOCKED: USER    
DOCKED: USER    
DOCKED: USER    NEWDPF move IHP_ideal_opt.pdbqt
DOCKED: USER    NEWDPF about 0.035000 0.082000 -0.065000
DOCKED: USER    NEWDPF tran0 6.430206 0.682923 20.486569
DOCKED: USER    NEWDPF quaternion0 -0.227369 -0.083315 -0.679586 -0.692478
DOCKED: USER    NEWDPF axisangle0 -0.315161 -0.115485 -0.941986 -92.346892
DOCKED: USER    NEWDPF quat0 -0.315161 -0.115485 -0.941986 -92.346892
DOCKED: USER    NEWDPF dihe0 138.82 132.96 73.42 99.09 -24.60 -155.34 -97.16 -38.31 120.20 1.61 9.70 169.84 137.75 128.99 -10.51 66.23 -116.19 -145.58 22.61 -8.51 166.34 156.56 141.28 -51.48 
DOCKED: USER  keepresnum = 1 
DOCKED: USER  
DOCKED: REMARK  24 active torsions:
DOCKED: REMARK  status: ('A' for Active; 'I' for Inactive)
DOCKED: REMARK    1  A    between atoms: C_1  and  O_7 
DOCKED: REMARK    2  A    between atoms: C_2  and  O_12 
DOCKED: REMARK    3  A    between atoms: C_3  and  O_17 
DOCKED: REMARK    4  A    between atoms: C_4  and  O_22 
DOCKED: REMARK    5  A    between atoms: C_5  and  O_27 
DOCKED: REMARK    6  A    between atoms: C_6  and  O_32 
DOCKED: REMARK    7  A    between atoms: O_7  and  P_8 
DOCKED: REMARK    8  A    between atoms: P_8  and  O_10 
DOCKED: REMARK    9  A    between atoms: P_8  and  O_11 
DOCKED: REMARK   10  A    between atoms: O_12  and  P_13 
DOCKED: REMARK   11  A    between atoms: P_13  and  O_15 
DOCKED: REMARK   12  A    between atoms: P_13  and  O_16 
DOCKED: REMARK   13  A    between atoms: O_17  and  P_18 
DOCKED: REMARK   14  A    between atoms: P_18  and  O_20 
DOCKED: REMARK   15  A    between atoms: P_18  and  O_21 
DOCKED: REMARK   16  A    between atoms: O_22  and  P_23 
DOCKED: REMARK   17  A    between atoms: P_23  and  O_25 
DOCKED: REMARK   18  A    between atoms: P_23  and  O_26 
DOCKED: REMARK   19  A    between atoms: O_27  and  P_28 
DOCKED: REMARK   20  A    between atoms: P_28  and  O_30 
DOCKED: REMARK   21  A    between atoms: P_28  and  O_31 
DOCKED: REMARK   22  A    between atoms: O_32  and  P_33 
DOCKED: REMARK   23  A    between atoms: P_33  and  O_35 
DOCKED: REMARK   24  A    between atoms: P_33  and  O_36 
DOCKED: USER                              x       y       z     vdW  Elec       q    Type
DOCKED: USER                           _______ _______ _______ _____ _____    ______ ____
DOCKED: ROOT
DOCKED: ATOM      1  C   UNL d   1       5.792  -0.086  21.896 +0.00 -0.02    +0.194 C 
DOCKED: ATOM      2  C   UNL d   1       4.856   0.905  21.202 -0.02 -0.02    +0.194 C 
DOCKED: ATOM      3  C   UNL d   1       5.591   2.179  20.781 -0.09 -0.07    +0.194 C 
DOCKED: ATOM      4  C   UNL d   1       6.849   1.905  19.962 -0.05 -0.07    +0.194 C 
DOCKED: ATOM      5  C   UNL d   1       7.758   0.837  20.559 -0.00 -0.04    +0.194 C 
DOCKED: ATOM      6  C   UNL d   1       7.015  -0.412  21.037 +0.00 -0.02    +0.194 C 
DOCKED: ENDROOT
DOCKED: BRANCH   1   7
DOCKED: ATOM      7  O   UNL d   1       5.077  -1.307  22.100 +0.00 +0.00    -0.278 OA
DOCKED: BRANCH   7   8
DOCKED: ATOM      8  P   UNL d   1       4.465  -1.595  23.547 +0.01 -0.00    +0.473 P 
DOCKED: ATOM      9  O   UNL d   1       3.929  -2.970  23.743 +0.00 -0.00    -0.228 OA
DOCKED: BRANCH   8  10
DOCKED: ATOM     10  O   UNL d   1       5.653  -1.235  24.549 +0.00 +0.01    -0.303 OA
DOCKED: ATOM     11  H   UNL d   1       6.499  -1.234  24.064 +0.00 -0.01    +0.222 HD
DOCKED: ENDBRANCH   8  10
DOCKED: BRANCH   8  12
DOCKED: ATOM     12  O   UNL d   1       3.440  -0.408  23.805 +0.00 +0.01    -0.303 OA
DOCKED: ATOM     13  H   UNL d   1       2.539  -0.595  23.459 +0.01 +0.00    +0.222 HD
DOCKED: ENDBRANCH   8  12
DOCKED: ENDBRANCH   7   8
DOCKED: ENDBRANCH   1   7
DOCKED: BRANCH   2  14
DOCKED: ATOM     14  O   UNL d   1       4.305   0.287  20.032 -0.03 -0.00    -0.278 OA
DOCKED: BRANCH  14  15
DOCKED: ATOM     15  P   UNL d   1       2.708   0.217  19.944 -0.08 +0.11    +0.473 P 
DOCKED: ATOM     16  O   UNL d   1       2.131  -0.519  18.775 -0.67 -0.20    -0.228 OA
DOCKED: BRANCH  15  17
DOCKED: ATOM     17  O   UNL d   1       2.270  -0.407  21.343 -0.03 -0.05    -0.303 OA
DOCKED: ATOM     18  H   UNL d   1       3.003  -0.907  21.750 +0.03 +0.02    +0.222 HD
DOCKED: ENDBRANCH  15  17
DOCKED: BRANCH  15  19
DOCKED: ATOM     19  O   UNL d   1       2.235   1.727  20.105 -0.15 -0.00    -0.303 OA
DOCKED: ATOM     20  H   UNL d   1       2.824   2.342  19.630 +0.02 -0.04    +0.222 HD
DOCKED: ENDBRANCH  15  19
DOCKED: ENDBRANCH  14  15
DOCKED: ENDBRANCH   2  14
DOCKED: BRANCH   6  21
DOCKED: ATOM     21  O   UNL d   1       7.922  -1.141  21.860 +0.00 +0.02    -0.278 OA
DOCKED: BRANCH  21  22
DOCKED: ATOM     22  P   UNL d   1       8.446  -0.499  23.223 +0.00 -0.04    +0.473 P 
DOCKED: ATOM     23  O   UNL d   1       7.661   0.618  23.823 +0.00 +0.03    -0.228 OA
DOCKED: BRANCH  22  24
DOCKED: ATOM     24  O   UNL d   1       8.595  -1.784  24.151 +0.00 +0.02    -0.303 OA
DOCKED: ATOM     25  H   UNL d   1       7.738  -1.919  24.631 +0.00 -0.01    +0.222 HD
DOCKED: ENDBRANCH  22  24
DOCKED: BRANCH  22  26
DOCKED: ATOM     26  O   UNL d   1       9.973  -0.172  22.863 +0.00 +0.03    -0.303 OA
DOCKED: ATOM     27  H   UNL d   1      10.043   0.027  21.907 +0.00 -0.02    +0.222 HD
DOCKED: ENDBRANCH  22  26
DOCKED: ENDBRANCH  21  22
DOCKED: ENDBRANCH   6  21
DOCKED: BRANCH   3  28
DOCKED: ATOM     28  O   UNL d   1       4.727   2.905  19.915 -0.19 +0.14    -0.278 OA
DOCKED: BRANCH  28  29
DOCKED: ATOM     29  P   UNL d   1       4.814   2.702  18.338 -0.22 -0.18    +0.473 P 
DOCKED: ATOM     30  O   UNL d   1       5.015   1.302  17.882 -0.15 +0.02    -0.228 OA
DOCKED: BRANCH  29  31
DOCKED: ATOM     31  O   UNL d   1       3.458   3.424  17.888 -0.14 +0.10    -0.303 OA
DOCKED: ATOM     32  H   UNL d   1       2.732   3.124  18.482 -0.48 -0.09    +0.222 HD
DOCKED: ENDBRANCH  29  31
DOCKED: BRANCH  29  33
DOCKED: ATOM     33  O   UNL d   1       5.930   3.760  17.925 -0.14 +0.31    -0.303 OA
DOCKED: ATOM     34  H   UNL d   1       6.472   3.982  18.721 -0.35 -0.38    +0.222 HD
DOCKED: ENDBRANCH  29  33
DOCKED: ENDBRANCH  28  29
DOCKED: ENDBRANCH   3  28
DOCKED: BRANCH   5  35
DOCKED: ATOM     35  O   UNL d   1       8.625   0.432  19.502 -0.00 +0.04    -0.278 OA
DOCKED: BRANCH  35  36
DOCKED: ATOM     36  P   UNL d   1       8.191  -0.741  18.511 +0.01 -0.05    +0.473 P 
DOCKED: ATOM     37  O   UNL d   1       8.200  -2.117  19.098 +0.00 +0.02    -0.228 OA
DOCKED: BRANCH  36  38
DOCKED: ATOM     38  O   UNL d   1       6.758  -0.245  18.026 -0.01 +0.02    -0.303 OA
DOCKED: ATOM     39  H   UNL d   1       6.825   0.686  17.725 +0.04 -0.03    +0.222 HD
DOCKED: ENDBRANCH  36  38
DOCKED: BRANCH  36  40
DOCKED: ATOM     40  O   UNL d   1       9.130  -0.487  17.253 +0.00 +0.03    -0.303 OA
DOCKED: ATOM     41  H   UNL d   1       9.221   0.471  17.053 +0.01 -0.03    +0.222 HD
DOCKED: ENDBRANCH  36  40
DOCKED: ENDBRANCH  35  36
DOCKED: ENDBRANCH   5  35
DOCKED: BRANCH   4  42
DOCKED: ATOM     42  O   UNL d   1       7.597   3.125  19.930 -0.08 +0.20    -0.278 OA
DOCKED: BRANCH  42  43
DOCKED: ATOM     43  P   UNL d   1       8.736   3.302  18.827 -0.03 -0.24    +0.473 P 
DOCKED: ATOM     44  O   UNL d   1      10.145   3.071  19.251 -0.01 +0.06    -0.228 OA
DOCKED: BRANCH  43  45
DOCKED: ATOM     45  O   UNL d   1       8.242   2.342  17.658 -0.02 +0.09    -0.303 OA
DOCKED: ATOM     46  H   UNL d   1       8.221   1.408  17.947 +0.03 -0.05    +0.222 HD
DOCKED: ENDBRANCH  43  45
DOCKED: BRANCH  43  47
DOCKED: ATOM     47  O   UNL d   1       8.427   4.750  18.212 -0.07 +0.29    -0.303 OA
DOCKED: ATOM     48  H   UNL d   1       7.552   5.055  18.528 -0.47 -0.51    +0.222 HD
DOCKED: ENDBRANCH  43  47
DOCKED: ENDBRANCH  42  43
DOCKED: ENDBRANCH   4  42
DOCKED: TORSDOF 24
DOCKED: TER
DOCKED: ENDMDL
________________________________________________________________________________


	BEGINNING GENETIC ALGORITHM DOCKING 99 of 100
Run: 99 Seed: 653091466 1544939025 [ Run 99 of 100 GA/GALS ]
Beginning LAMARCKIAN GENETIC ALGORITHM (LGA), with a maximum of 25000000 energy evaluations.

Final-Value: -15.080


	FINAL GENETIC ALGORITHM DOCKED STATE
	_______________________________________________


Detailed state:  trans 6.362 16.515 -1.360 quatxyzw -0.625950 0.309680 0.711818 -0.074831 center 0.035 0.082 -0.065 ntor 24 73.9576 167.7050 -179.8031 -8.6683 179.9888 -149.7503 -20.9069 -126.7749 124.6907 124.8776 0.5829 -136.2107 -179.9394 176.2166 -30.3585 103.0521 56.1303 -15.0315 -27.1244 18.8240 -6.9550 9.3405 180.0000 -3.0919
State:	  6.362  16.515  -1.360  -0.628  0.311  0.714 -171.417     73.96  167.70 -179.80   -8.67  179.99 -149.75  -20.91 -126.77  124.69  124.88    0.58 -136.21 -179.94  176.22  -30.36  103.05   56.13  -15.03  -27.12   18.82   -6.96    9.34  180.00   -3.09

DOCKED: MODEL       99
DOCKED: USER    Run = 99
DOCKED: USER    DPF = D:/Protein_go_brrr/autodock/final/mut_D99N/IHP/dock.dpf
DOCKED: USER  
DOCKED: USER    Estimated Free Energy of Binding    =   +4.23 kcal/mol  [=(1)+(2)+(3)-(4)]
DOCKED: USER    
DOCKED: USER    (1) Final Intermolecular Energy     =   -2.93 kcal/mol
DOCKED: USER        vdW + Hbond + desolv Energy     =   -2.73 kcal/mol
DOCKED: USER        Electrostatic Energy            =   -0.19 kcal/mol
DOCKED: USER    (2) Final Total Internal Energy     =  -12.15 kcal/mol
DOCKED: USER    (3) Torsional Free Energy           =   +7.16 kcal/mol
DOCKED: USER    (4) Unbound System's Energy  [=(2)] =  -12.15 kcal/mol
DOCKED: USER    
DOCKED: USER    
DOCKED: USER    NEWDPF move IHP_ideal_opt.pdbqt
DOCKED: USER    NEWDPF about 0.035000 0.082000 -0.065000
DOCKED: USER    NEWDPF tran0 6.361539 16.515017 -1.360040
DOCKED: USER    NEWDPF quaternion0 -0.625950 0.309680 0.711818 -0.074831
DOCKED: USER    NEWDPF axisangle0 -0.627710 0.310550 0.713820 -171.416955
DOCKED: USER    NEWDPF quat0 -0.627710 0.310550 0.713820 -171.416955
DOCKED: USER    NEWDPF dihe0 73.96 167.70 -179.80 -8.67 179.99 -149.75 -20.91 -126.77 124.69 124.88 0.58 -136.21 -179.94 176.22 -30.36 103.05 56.13 -15.03 -27.12 18.82 -6.96 9.34 180.00 -3.09 
DOCKED: USER  keepresnum = 1 
DOCKED: USER  
DOCKED: REMARK  24 active torsions:
DOCKED: REMARK  status: ('A' for Active; 'I' for Inactive)
DOCKED: REMARK    1  A    between atoms: C_1  and  O_7 
DOCKED: REMARK    2  A    between atoms: C_2  and  O_12 
DOCKED: REMARK    3  A    between atoms: C_3  and  O_17 
DOCKED: REMARK    4  A    between atoms: C_4  and  O_22 
DOCKED: REMARK    5  A    between atoms: C_5  and  O_27 
DOCKED: REMARK    6  A    between atoms: C_6  and  O_32 
DOCKED: REMARK    7  A    between atoms: O_7  and  P_8 
DOCKED: REMARK    8  A    between atoms: P_8  and  O_10 
DOCKED: REMARK    9  A    between atoms: P_8  and  O_11 
DOCKED: REMARK   10  A    between atoms: O_12  and  P_13 
DOCKED: REMARK   11  A    between atoms: P_13  and  O_15 
DOCKED: REMARK   12  A    between atoms: P_13  and  O_16 
DOCKED: REMARK   13  A    between atoms: O_17  and  P_18 
DOCKED: REMARK   14  A    between atoms: P_18  and  O_20 
DOCKED: REMARK   15  A    between atoms: P_18  and  O_21 
DOCKED: REMARK   16  A    between atoms: O_22  and  P_23 
DOCKED: REMARK   17  A    between atoms: P_23  and  O_25 
DOCKED: REMARK   18  A    between atoms: P_23  and  O_26 
DOCKED: REMARK   19  A    between atoms: O_27  and  P_28 
DOCKED: REMARK   20  A    between atoms: P_28  and  O_30 
DOCKED: REMARK   21  A    between atoms: P_28  and  O_31 
DOCKED: REMARK   22  A    between atoms: O_32  and  P_33 
DOCKED: REMARK   23  A    between atoms: P_33  and  O_35 
DOCKED: REMARK   24  A    between atoms: P_33  and  O_36 
DOCKED: USER                              x       y       z     vdW  Elec       q    Type
DOCKED: USER                           _______ _______ _______ _____ _____    ______ ____
DOCKED: ROOT
DOCKED: ATOM      1  C   UNL d   1       5.875  17.293  -2.824 -0.01 +0.00    +0.194 C 
DOCKED: ATOM      2  C   UNL d   1       6.840  18.088  -1.942 -0.01 +0.00    +0.194 C 
DOCKED: ATOM      3  C   UNL d   1       6.456  18.004  -0.463 -0.03 +0.00    +0.194 C 
DOCKED: ATOM      4  C   UNL d   1       6.270  16.571   0.030 -0.10 +0.01    +0.194 C 
DOCKED: ATOM      5  C   UNL d   1       5.407  15.708  -0.881 -0.14 +0.01    +0.194 C 
DOCKED: ATOM      6  C   UNL d   1       5.751  15.839  -2.367 -0.05 +0.01    +0.194 C 
DOCKED: ENDROOT
DOCKED: BRANCH   1   7
DOCKED: ATOM      7  O   UNL d   1       6.396  17.279  -4.155 +0.00 -0.01    -0.278 OA
DOCKED: BRANCH   7   8
DOCKED: ATOM      8  P   UNL d   1       5.366  17.208  -5.373 +0.02 -0.00    +0.473 P 
DOCKED: ATOM      9  O   UNL d   1       5.636  16.133  -6.367 -0.01 +0.00    -0.228 OA
DOCKED: BRANCH   8  10
DOCKED: ATOM     10  O   UNL d   1       3.942  17.066  -4.667 -0.01 +0.01    -0.303 OA
DOCKED: ATOM     11  H   UNL d   1       3.775  16.130  -4.451 +0.04 -0.02    +0.222 HD
DOCKED: ENDBRANCH   8  10
DOCKED: BRANCH   8  12
DOCKED: ATOM     12  O   UNL d   1       5.305  18.687  -5.950 +0.00 +0.00    -0.303 OA
DOCKED: ATOM     13  H   UNL d   1       5.545  18.739  -6.902 +0.00 +0.00    +0.222 HD
DOCKED: ENDBRANCH   8  12
DOCKED: ENDBRANCH   7   8
DOCKED: ENDBRANCH   1   7
DOCKED: BRANCH   2  14
DOCKED: ATOM     14  O   UNL d   1       8.162  17.558  -2.101 -0.00 -0.01    -0.278 OA
DOCKED: BRANCH  14  15
DOCKED: ATOM     15  P   UNL d   1       9.374  18.586  -1.906 +0.00 +0.01    +0.473 P 
DOCKED: ATOM     16  O   UNL d   1      10.393  18.639  -3.002 +0.00 -0.01    -0.228 OA
DOCKED: BRANCH  15  17
DOCKED: ATOM     17  O   UNL d   1       8.657  19.988  -1.662 -0.00 -0.01    -0.303 OA
DOCKED: ATOM     18  H   UNL d   1       8.412  20.098  -0.723 +0.00 +0.00    +0.222 HD
DOCKED: ENDBRANCH  15  17
DOCKED: BRANCH  15  19
DOCKED: ATOM     19  O   UNL d   1       9.942  18.260  -0.457 +0.00 -0.01    -0.303 OA
DOCKED: ATOM     20  H   UNL d   1       9.310  18.510   0.243 +0.00 +0.00    +0.222 HD
DOCKED: ENDBRANCH  15  19
DOCKED: ENDBRANCH  14  15
DOCKED: ENDBRANCH   2  14
DOCKED: BRANCH   6  21
DOCKED: ATOM     21  O   UNL d   1       4.667  15.264  -3.093 -0.06 +0.00    -0.278 OA
DOCKED: BRANCH  21  22
DOCKED: ATOM     22  P   UNL d   1       4.872  13.878  -3.855 -0.07 -0.00    +0.473 P 
DOCKED: ATOM     23  O   UNL d   1       6.212  13.225  -3.784 -0.32 -0.08    -0.228 OA
DOCKED: BRANCH  22  24
DOCKED: ATOM     24  O   UNL d   1       3.674  13.006  -3.275 -0.20 +0.08    -0.303 OA
DOCKED: ATOM     25  H   UNL d   1       3.043  12.818  -4.015 -0.49 -0.25    +0.222 HD
DOCKED: ENDBRANCH  22  24
DOCKED: BRANCH  22  26
DOCKED: ATOM     26  O   UNL d   1       4.341  14.233  -5.326 -0.18 +0.10    -0.303 OA
DOCKED: ATOM     27  H   UNL d   1       4.588  15.155  -5.543 +0.03 -0.03    +0.222 HD
DOCKED: ENDBRANCH  22  26
DOCKED: ENDBRANCH  21  22
DOCKED: ENDBRANCH   6  21
DOCKED: BRANCH   3  28
DOCKED: ATOM     28  O   UNL d   1       7.543  18.525   0.292 -0.01 -0.01    -0.278 OA
DOCKED: BRANCH  28  29
DOCKED: ATOM     29  P   UNL d   1       7.333  19.789   1.237 -0.00 +0.01    +0.473 P 
DOCKED: ATOM     30  O   UNL d   1       6.651  19.517   2.529 -0.02 -0.00    -0.228 OA
DOCKED: BRANCH  29  31
DOCKED: ATOM     31  O   UNL d   1       8.835  20.336   1.310 -0.00 -0.00    -0.303 OA
DOCKED: ATOM     32  H   UNL d   1       9.290  20.118   0.464 +0.00 +0.00    +0.222 HD
DOCKED: ENDBRANCH  29  31
DOCKED: BRANCH  29  33
DOCKED: ATOM     33  O   UNL d   1       6.628  20.826   0.256 -0.00 -0.00    -0.303 OA
DOCKED: ATOM     34  H   UNL d   1       7.275  21.101  -0.439 +0.00 +0.00    +0.222 HD
DOCKED: ENDBRANCH  29  33
DOCKED: ENDBRANCH  28  29
DOCKED: ENDBRANCH   3  28
DOCKED: BRANCH   5  35
DOCKED: ATOM     35  O   UNL d   1       5.676  14.359  -0.506 -0.19 -0.02    -0.278 OA
DOCKED: BRANCH  35  36
DOCKED: ATOM     36  P   UNL d   1       7.180  13.846  -0.369 -0.08 +0.06    +0.473 P 
DOCKED: ATOM     37  O   UNL d   1       7.712  13.772   1.027 -0.16 -0.02    -0.228 OA
DOCKED: BRANCH  36  38
DOCKED: ATOM     38  O   UNL d   1       7.115  12.443  -1.120 -0.28 -0.08    -0.303 OA
DOCKED: ATOM     39  H   UNL d   1       6.756  12.579  -2.023 +0.08 +0.05    +0.222 HD
DOCKED: ENDBRANCH  36  38
DOCKED: BRANCH  36  40
DOCKED: ATOM     40  O   UNL d   1       7.955  14.790  -1.388 -0.02 -0.03    -0.303 OA
DOCKED: ATOM     41  H   UNL d   1       8.184  15.655  -0.981 +0.02 +0.01    +0.222 HD
DOCKED: ENDBRANCH  36  40
DOCKED: ENDBRANCH  35  36
DOCKED: ENDBRANCH   5  35
DOCKED: BRANCH   4  42
DOCKED: ATOM     42  O   UNL d   1       5.601  16.650   1.293 -0.13 -0.01    -0.278 OA
DOCKED: BRANCH  42  43
DOCKED: ATOM     43  P   UNL d   1       6.374  16.180   2.606 -0.12 +0.00    +0.473 P 
DOCKED: ATOM     44  O   UNL d   1       7.854  16.348   2.629 -0.05 -0.00    -0.228 OA
DOCKED: BRANCH  43  45
DOCKED: ATOM     45  O   UNL d   1       5.613  16.968   3.760 -0.12 +0.00    -0.303 OA
DOCKED: ATOM     46  H   UNL d   1       5.828  17.922   3.745 +0.05 +0.00    +0.222 HD
DOCKED: ENDBRANCH  43  45
DOCKED: BRANCH  43  47
DOCKED: ATOM     47  O   UNL d   1       5.844  14.684   2.828 -0.24 +0.01    -0.303 OA
DOCKED: ATOM     48  H   UNL d   1       5.815  14.221   1.966 +0.10 +0.01    +0.222 HD
DOCKED: ENDBRANCH  43  47
DOCKED: ENDBRANCH  42  43
DOCKED: ENDBRANCH   4  42
DOCKED: TORSDOF 24
DOCKED: TER
DOCKED: ENDMDL
________________________________________________________________________________


	BEGINNING GENETIC ALGORITHM DOCKING 100 of 100
Run: 100 Seed: 491637803 1226443973 [ Run 100 of 100 GA/GALS ]
Beginning LAMARCKIAN GENETIC ALGORITHM (LGA), with a maximum of 25000000 energy evaluations.

Final-Value: -16.764


	FINAL GENETIC ALGORITHM DOCKED STATE
	_______________________________________________


Detailed state:  trans 0.649 17.382 15.790 quatxyzw -0.102321 -0.830995 -0.444820 0.317984 center 0.035 0.082 -0.065 ntor 24 -166.5431 39.0878 174.5763 -1.3601 158.6035 99.0471 -56.7424 60.3804 162.7108 20.9378 -179.9809 -180.0000 12.0835 84.3905 49.3100 -177.0889 -180.0000 71.5677 8.2030 -42.8037 -32.9124 -35.0149 -174.9384 17.8776
State:	  0.649  17.382  15.790  -0.108 -0.876 -0.469 142.918   -166.54   39.09  174.58   -1.36  158.60   99.05  -56.74   60.38  162.71   20.94 -179.98 -180.00   12.08   84.39   49.31 -177.09 -180.00   71.57    8.20  -42.80  -32.91  -35.01 -174.94   17.88

DOCKED: MODEL      100
DOCKED: USER    Run = 100
DOCKED: USER    DPF = D:/Protein_go_brrr/autodock/final/mut_D99N/IHP/dock.dpf
DOCKED: USER  
DOCKED: USER    Estimated Free Energy of Binding    =   +3.75 kcal/mol  [=(1)+(2)+(3)-(4)]
DOCKED: USER    
DOCKED: USER    (1) Final Intermolecular Energy     =   -3.41 kcal/mol
DOCKED: USER        vdW + Hbond + desolv Energy     =   -3.33 kcal/mol
DOCKED: USER        Electrostatic Energy            =   -0.07 kcal/mol
DOCKED: USER    (2) Final Total Internal Energy     =  -13.36 kcal/mol
DOCKED: USER    (3) Torsional Free Energy           =   +7.16 kcal/mol
DOCKED: USER    (4) Unbound System's Energy  [=(2)] =  -13.36 kcal/mol
DOCKED: USER    
DOCKED: USER    
DOCKED: USER    NEWDPF move IHP_ideal_opt.pdbqt
DOCKED: USER    NEWDPF about 0.035000 0.082000 -0.065000
DOCKED: USER    NEWDPF tran0 0.648841 17.382162 15.790191
DOCKED: USER    NEWDPF quaternion0 -0.102321 -0.830995 -0.444820 0.317984
DOCKED: USER    NEWDPF axisangle0 -0.107923 -0.876488 -0.469172 142.917960
DOCKED: USER    NEWDPF quat0 -0.107923 -0.876488 -0.469172 142.917960
DOCKED: USER    NEWDPF dihe0 -166.54 39.09 174.58 -1.36 158.60 99.05 -56.74 60.38 162.71 20.94 -179.98 -180.00 12.08 84.39 49.31 -177.09 -180.00 71.57 8.20 -42.80 -32.91 -35.01 -174.94 17.88 
DOCKED: USER  keepresnum = 1 
DOCKED: USER  
DOCKED: REMARK  24 active torsions:
DOCKED: REMARK  status: ('A' for Active; 'I' for Inactive)
DOCKED: REMARK    1  A    between atoms: C_1  and  O_7 
DOCKED: REMARK    2  A    between atoms: C_2  and  O_12 
DOCKED: REMARK    3  A    between atoms: C_3  and  O_17 
DOCKED: REMARK    4  A    between atoms: C_4  and  O_22 
DOCKED: REMARK    5  A    between atoms: C_5  and  O_27 
DOCKED: REMARK    6  A    between atoms: C_6  and  O_32 
DOCKED: REMARK    7  A    between atoms: O_7  and  P_8 
DOCKED: REMARK    8  A    between atoms: P_8  and  O_10 
DOCKED: REMARK    9  A    between atoms: P_8  and  O_11 
DOCKED: REMARK   10  A    between atoms: O_12  and  P_13 
DOCKED: REMARK   11  A    between atoms: P_13  and  O_15 
DOCKED: REMARK   12  A    between atoms: P_13  and  O_16 
DOCKED: REMARK   13  A    between atoms: O_17  and  P_18 
DOCKED: REMARK   14  A    between atoms: P_18  and  O_20 
DOCKED: REMARK   15  A    between atoms: P_18  and  O_21 
DOCKED: REMARK   16  A    between atoms: O_22  and  P_23 
DOCKED: REMARK   17  A    between atoms: P_23  and  O_25 
DOCKED: REMARK   18  A    between atoms: P_23  and  O_26 
DOCKED: REMARK   19  A    between atoms: O_27  and  P_28 
DOCKED: REMARK   20  A    between atoms: P_28  and  O_30 
DOCKED: REMARK   21  A    between atoms: P_28  and  O_31 
DOCKED: REMARK   22  A    between atoms: O_32  and  P_33 
DOCKED: REMARK   23  A    between atoms: P_33  and  O_35 
DOCKED: REMARK   24  A    between atoms: P_33  and  O_36 
DOCKED: USER                              x       y       z     vdW  Elec       q    Type
DOCKED: USER                           _______ _______ _______ _____ _____    ______ ____
DOCKED: ROOT
DOCKED: ATOM      1  C   UNL d   1       0.266  17.965  14.210 -0.03 -0.02    +0.194 C 
DOCKED: ATOM      2  C   UNL d   1       1.097  16.682  14.257 -0.08 -0.03    +0.194 C 
DOCKED: ATOM      3  C   UNL d   1       2.204  16.763  15.311 -0.07 -0.03    +0.194 C 
DOCKED: ATOM      4  C   UNL d   1       1.692  17.170  16.691 -0.07 -0.03    +0.194 C 
DOCKED: ATOM      5  C   UNL d   1       0.764  18.379  16.676 -0.03 -0.02    +0.194 C 
DOCKED: ATOM      6  C   UNL d   1      -0.304  18.326  15.582 -0.03 -0.02    +0.194 C 
DOCKED: ENDROOT
DOCKED: BRANCH   1   7
DOCKED: ATOM      7  O   UNL d   1      -0.842  17.746  13.333 -0.02 +0.03    -0.278 OA
DOCKED: BRANCH   7   8
DOCKED: ATOM      8  P   UNL d   1      -0.914  18.588  11.977 -0.01 -0.02    +0.473 P 
DOCKED: ATOM      9  O   UNL d   1       0.190  18.329  11.014 -0.07 +0.00    -0.228 OA
DOCKED: BRANCH   8  10
DOCKED: ATOM     10  O   UNL d   1      -2.356  18.246  11.386 -0.02 +0.02    -0.303 OA
DOCKED: ATOM     11  H   UNL d   1      -2.993  18.144  12.117 +0.03 -0.02    +0.222 HD
DOCKED: ENDBRANCH   8  10
DOCKED: BRANCH   8  12
DOCKED: ATOM     12  O   UNL d   1      -1.093  20.098  12.437 -0.00 +0.01    -0.303 OA
DOCKED: ATOM     13  H   UNL d   1      -1.217  20.193  13.408 +0.00 -0.01    +0.222 HD
DOCKED: ENDBRANCH   8  12
DOCKED: ENDBRANCH   7   8
DOCKED: ENDBRANCH   1   7
DOCKED: BRANCH   2  14
DOCKED: ATOM     14  O   UNL d   1       0.239  15.581  14.580 -0.15 +0.07    -0.278 OA
DOCKED: BRANCH  14  15
DOCKED: ATOM     15  P   UNL d   1      -0.464  14.836  13.349 -0.21 -0.12    +0.473 P 
DOCKED: ATOM     16  O   UNL d   1      -0.549  13.344  13.426 -0.74 +0.08    -0.228 OA
DOCKED: BRANCH  15  17
DOCKED: ATOM     17  O   UNL d   1      -1.893  15.532  13.239 -0.15 +0.08    -0.303 OA
DOCKED: ATOM     18  H   UNL d   1      -1.829  16.397  12.792 +0.06 -0.04    +0.222 HD
DOCKED: ENDBRANCH  15  17
DOCKED: BRANCH  15  19
DOCKED: ATOM     19  O   UNL d   1       0.272  15.415  12.063 -0.17 +0.03    -0.303 OA
DOCKED: ATOM     20  H   UNL d   1       0.153  16.380  11.983 +0.07 -0.02    +0.222 HD
DOCKED: ENDBRANCH  15  19
DOCKED: ENDBRANCH  14  15
DOCKED: ENDBRANCH   2  14
DOCKED: BRANCH   6  21
DOCKED: ATOM     21  O   UNL d   1      -0.850  19.639  15.476 -0.00 +0.02    -0.278 OA
DOCKED: BRANCH  21  22
DOCKED: ATOM     22  P   UNL d   1      -2.430  19.834  15.372 +0.00 -0.03    +0.473 P 
DOCKED: ATOM     23  O   UNL d   1      -3.234  19.755  16.626 -0.00 +0.02    -0.228 OA
DOCKED: BRANCH  22  24
DOCKED: ATOM     24  O   UNL d   1      -2.536  21.221  14.597 +0.00 +0.01    -0.303 OA
DOCKED: ATOM     25  H   UNL d   1      -2.600  21.027  13.627 +0.00 -0.01    +0.222 HD
DOCKED: ENDBRANCH  22  24
DOCKED: BRANCH  22  26
DOCKED: ATOM     26  O   UNL d   1      -2.812  18.783  14.224 -0.00 +0.02    -0.303 OA
DOCKED: ATOM     27  H   UNL d   1      -2.541  19.143  13.355 +0.01 -0.01    +0.222 HD
DOCKED: ENDBRANCH  22  26
DOCKED: ENDBRANCH  21  22
DOCKED: ENDBRANCH   6  21
DOCKED: BRANCH   3  28
DOCKED: ATOM     28  O   UNL d   1       2.733  15.454  15.477 -0.11 +0.07    -0.278 OA
DOCKED: BRANCH  28  29
DOCKED: ATOM     29  P   UNL d   1       3.709  14.835  14.380 -0.09 -0.06    +0.473 P 
DOCKED: ATOM     30  O   UNL d   1       4.604  13.751  14.857 -0.17 +0.01    -0.228 OA
DOCKED: BRANCH  29  31
DOCKED: ATOM     31  O   UNL d   1       2.646  14.454  13.246 -0.11 +0.04    -0.303 OA
DOCKED: ATOM     32  H   UNL d   1       1.741  14.631  13.591 +0.10 -0.04    +0.222 HD
DOCKED: ENDBRANCH  29  31
DOCKED: BRANCH  29  33
DOCKED: ATOM     33  O   UNL d   1       4.407  16.136  13.784 -0.02 +0.02    -0.303 OA
DOCKED: ATOM     34  H   UNL d   1       5.382  16.074  13.934 +0.03 -0.01    +0.222 HD
DOCKED: ENDBRANCH  29  33
DOCKED: ENDBRANCH  28  29
DOCKED: ENDBRANCH   3  28
DOCKED: BRANCH   5  35
DOCKED: ATOM     35  O   UNL d   1       0.083  18.359  17.929 -0.02 +0.03    -0.278 OA
DOCKED: BRANCH  35  36
DOCKED: ATOM     36  P   UNL d   1      -0.508  16.992  18.502 -0.08 -0.06    +0.473 P 
DOCKED: ATOM     37  O   UNL d   1      -1.888  17.075  19.071 -0.07 +0.02    -0.228 OA
DOCKED: BRANCH  36  38
DOCKED: ATOM     38  O   UNL d   1      -0.376  16.027  17.243 -0.08 +0.07    -0.303 OA
DOCKED: ATOM     39  H   UNL d   1       0.481  15.551  17.291 -0.44 -0.13    +0.222 HD
DOCKED: ENDBRANCH  36  38
DOCKED: BRANCH  36  40
DOCKED: ATOM     40  O   UNL d   1       0.648  16.506  19.480 -0.10 +0.05    -0.303 OA
DOCKED: ATOM     41  H   UNL d   1       1.510  16.925  19.262 +0.03 -0.03    +0.222 HD
DOCKED: ENDBRANCH  36  40
DOCKED: ENDBRANCH  35  36
DOCKED: ENDBRANCH   5  35
DOCKED: BRANCH   4  42
DOCKED: ATOM     42  O   UNL d   1       2.838  17.529  17.469 -0.03 +0.03    -0.278 OA
DOCKED: BRANCH  42  43
DOCKED: ATOM     43  P   UNL d   1       3.527  16.418  18.384 -0.05 -0.06    +0.473 P 
DOCKED: ATOM     44  O   UNL d   1       4.935  16.046  18.069 -0.04 +0.02    -0.228 OA
DOCKED: BRANCH  43  45
DOCKED: ATOM     45  O   UNL d   1       3.320  16.997  19.852 -0.02 +0.03    -0.303 OA
DOCKED: ATOM     46  H   UNL d   1       2.640  16.494  20.342 +0.03 -0.03    +0.222 HD
DOCKED: ENDBRANCH  43  45
DOCKED: BRANCH  43  47
DOCKED: ATOM     47  O   UNL d   1       2.470  15.213  18.356 -0.16 +0.08    -0.303 OA
DOCKED: ATOM     48  H   UNL d   1       1.696  15.475  17.816 -0.29 -0.10    +0.222 HD
DOCKED: ENDBRANCH  43  47
DOCKED: ENDBRANCH  42  43
DOCKED: ENDBRANCH   4  42
DOCKED: TORSDOF 24
DOCKED: TER
DOCKED: ENDMDL
________________________________________________________________________________

DPF> analysis                             # perform a ranked cluster analysis


		CLUSTER ANALYSIS OF CONFORMATIONS
		_________________________________

Number of conformations = 100

RMSD cluster analysis will be performed using the ligand atoms only (48 / 48 total atoms).

Outputting structurally similar clusters, ranked in order of increasing energy.


________________________________________________________________________________

Number of distinct conformational clusters found = 88,  out of 100 runs,
Using an rmsd-tolerance of 2.0 A


	CLUSTERING HISTOGRAM
	____________________

________________________________________________________________________________
     |           |     |           |     |                                    
Clus | Lowest    | Run | Mean      | Num | Histogram                          
-ter | Binding   |     | Binding   | in  |                                    
Rank | Energy    |     | Energy    | Clus|    5    10   15   20   25   30   35
_____|___________|_____|___________|_____|____:____|____:____|____:____|____:___
   1 |     -0.44 |  71 |     -0.44 |   1 |#
   2 |     +0.07 |  80 |     +0.07 |   1 |#
   3 |     +0.20 |  45 |     +0.20 |   1 |#
   4 |     +0.48 |  87 |     +1.07 |   2 |##
   5 |     +0.62 |  82 |     +0.91 |   2 |##
   6 |     +0.87 |  67 |     +0.95 |   2 |##
   7 |     +1.00 |  60 |     +1.00 |   1 |#
   8 |     +1.17 |  94 |     +1.49 |   2 |##
   9 |     +1.34 |  63 |     +1.90 |   2 |##
  10 |     +1.43 |  77 |     +1.43 |   1 |#
  11 |     +1.46 |  85 |     +1.46 |   1 |#
  12 |     +1.47 |  72 |     +1.47 |   1 |#
  13 |     +1.48 |  57 |     +1.48 |   1 |#
  14 |     +1.53 |  24 |     +1.72 |   3 |###
  15 |     +1.55 |  21 |     +1.55 |   1 |#
  16 |     +1.62 |  66 |     +1.78 |   2 |##
  17 |     +1.66 |   8 |     +2.14 |   2 |##
  18 |     +1.68 |  26 |     +2.41 |   2 |##
  19 |     +1.71 |   3 |     +1.71 |   1 |#
  20 |     +1.77 |  32 |     +1.77 |   1 |#
  21 |     +1.80 |  38 |     +1.80 |   1 |#
  22 |     +2.00 |  93 |     +2.00 |   1 |#
  23 |     +2.00 |  23 |     +2.00 |   1 |#
  24 |     +2.01 |  39 |     +2.01 |   1 |#
  25 |     +2.06 |  78 |     +2.54 |   2 |##
  26 |     +2.15 |  95 |     +2.79 |   2 |##
  27 |     +2.15 |  19 |     +2.15 |   1 |#
  28 |     +2.22 |   7 |     +2.22 |   1 |#
  29 |     +2.26 |  92 |     +2.26 |   1 |#
  30 |     +2.32 |  75 |     +2.32 |   1 |#
  31 |     +2.35 |  43 |     +2.35 |   1 |#
  32 |     +2.42 |  14 |     +2.42 |   1 |#
  33 |     +2.42 |  18 |     +2.42 |   1 |#
  34 |     +2.43 |  42 |     +2.43 |   1 |#
  35 |     +2.45 |  12 |     +2.45 |   1 |#
  36 |     +2.55 |  62 |     +2.55 |   1 |#
  37 |     +2.60 |   6 |     +2.60 |   1 |#
  38 |     +2.63 |   4 |     +2.63 |   1 |#
  39 |     +2.70 |  30 |     +2.70 |   1 |#
  40 |     +2.74 |  89 |     +2.74 |   1 |#
  41 |     +2.76 |  53 |     +2.76 |   1 |#
  42 |     +2.77 |  65 |     +2.77 |   1 |#
  43 |     +2.81 |  97 |     +2.81 |   1 |#
  44 |     +2.82 |  37 |     +2.82 |   1 |#
  45 |     +2.88 |  46 |     +2.88 |   1 |#
  46 |     +2.89 |  29 |     +2.89 |   1 |#
  47 |     +2.90 |  47 |     +2.90 |   1 |#
  48 |     +2.92 |  52 |     +2.92 |   1 |#
  49 |     +2.93 |  68 |     +2.93 |   1 |#
  50 |     +2.94 |   9 |     +2.94 |   1 |#
  51 |     +2.97 |  84 |     +2.97 |   1 |#
  52 |     +3.01 |  20 |     +3.01 |   1 |#
  53 |     +3.06 |  28 |     +3.06 |   1 |#
  54 |     +3.07 |  96 |     +3.07 |   1 |#
  55 |     +3.22 |  98 |     +3.22 |   1 |#
  56 |     +3.25 |  17 |     +3.25 |   1 |#
  57 |     +3.28 |  56 |     +3.28 |   1 |#
  58 |     +3.29 |  59 |     +3.29 |   1 |#
  59 |     +3.32 |  51 |     +3.32 |   1 |#
  60 |     +3.35 |  79 |     +3.35 |   1 |#
  61 |     +3.36 |  35 |     +3.36 |   1 |#
  62 |     +3.39 |  44 |     +3.39 |   1 |#
  63 |     +3.42 |   1 |     +3.42 |   1 |#
  64 |     +3.45 |   2 |     +3.45 |   1 |#
  65 |     +3.47 |  49 |     +3.47 |   1 |#
  66 |     +3.52 |  31 |     +3.52 |   1 |#
  67 |     +3.54 |  11 |     +3.54 |   1 |#
  68 |     +3.67 |  34 |     +3.67 |   1 |#
  69 |     +3.67 |  40 |     +3.67 |   1 |#
  70 |     +3.73 |  86 |     +3.73 |   1 |#
  71 |     +3.75 | 100 |     +3.75 |   1 |#
  72 |     +3.76 |  15 |     +3.76 |   1 |#
  73 |     +3.88 |  16 |     +3.88 |   1 |#
  74 |     +3.90 |  33 |     +3.90 |   1 |#
  75 |     +3.92 |  54 |     +3.92 |   1 |#
  76 |     +3.92 |  58 |     +3.92 |   1 |#
  77 |     +3.97 |  76 |     +3.97 |   1 |#
  78 |     +4.03 |  90 |     +4.03 |   1 |#
  79 |     +4.10 |  64 |     +4.10 |   1 |#
  80 |     +4.23 |  99 |     +4.23 |   1 |#
  81 |     +4.30 |  25 |     +4.30 |   1 |#
  82 |     +4.32 |  10 |     +4.32 |   1 |#
  83 |     +4.35 |  50 |     +4.35 |   1 |#
  84 |     +4.41 |  61 |     +4.41 |   1 |#
  85 |     +4.54 |  22 |     +4.54 |   1 |#
  86 |     +4.57 |  81 |     +4.57 |   1 |#
  87 |     +4.85 |  88 |     +4.85 |   1 |#
  88 |     +5.50 |  41 |     +5.50 |   1 |#
_____|___________|_____|___________|_____|______________________________________


Number of multi-member conformational clusters found = 11, out of 100 runs.

	RMSD TABLE
	__________

_____________________________________________________________________
     |      |      |           |         |                 |
Rank | Sub- | Run  | Binding   | Cluster | Reference       | Grep
     | Rank |      | Energy    | RMSD    | RMSD            | Pattern
_____|______|______|___________|_________|_________________|___________
   1      1     71       -0.44      0.00     14.69           RANKING
   2      1     80       +0.07      0.00     19.71           RANKING
   3      1     45       +0.20      0.00     12.52           RANKING
   4      1     87       +0.48      0.00     14.32           RANKING
   4      2     91       +1.66      1.70     14.26           RANKING
   5      1     82       +0.62      0.00     16.62           RANKING
   5      2     13       +1.20      1.78     18.01           RANKING
   6      1     67       +0.87      0.00     14.40           RANKING
   6      2     48       +1.02      1.90     14.60           RANKING
   7      1     60       +1.00      0.00     19.00           RANKING
   8      1     94       +1.17      0.00     13.71           RANKING
   8      2     83       +1.82      1.61     14.14           RANKING
   9      1     63       +1.34      0.00     10.93           RANKING
   9      2     55       +2.46      1.92     12.08           RANKING
  10      1     77       +1.43      0.00     14.36           RANKING
  11      1     85       +1.46      0.00     10.45           RANKING
  12      1     72       +1.47      0.00     17.15           RANKING
  13      1     57       +1.48      0.00     18.75           RANKING
  14      1     24       +1.53      0.00     16.16           RANKING
  14      2     69       +1.56      1.49     15.65           RANKING
  14      3      5       +2.07      1.63     15.93           RANKING
  15      1     21       +1.55      0.00     18.19           RANKING
  16      1     66       +1.62      0.00     13.89           RANKING
  16      2     70       +1.95      1.78     14.09           RANKING
  17      1      8       +1.66      0.00     17.66           RANKING
  17      2     73       +2.63      1.94     18.45           RANKING
  18      1     26       +1.68      0.00     18.49           RANKING
  18      2     27       +3.15      1.85     19.14           RANKING
  19      1      3       +1.71      0.00     16.00           RANKING
  20      1     32       +1.77      0.00     18.48           RANKING
  21      1     38       +1.80      0.00     14.94           RANKING
  22      1     93       +2.00      0.00     14.59           RANKING
  23      1     23       +2.00      0.00     10.11           RANKING
  24      1     39       +2.01      0.00     16.55           RANKING
  25      1     78       +2.06      0.00     18.27           RANKING
  25      2     74       +3.03      1.68     19.00           RANKING
  26      1     95       +2.15      0.00     12.80           RANKING
  26      2     36       +3.43      1.75     13.11           RANKING
  27      1     19       +2.15      0.00     13.13           RANKING
  28      1      7       +2.22      0.00     19.66           RANKING
  29      1     92       +2.26      0.00     11.61           RANKING
  30      1     75       +2.32      0.00     11.33           RANKING
  31      1     43       +2.35      0.00     14.35           RANKING
  32      1     14       +2.42      0.00     13.46           RANKING
  33      1     18       +2.42      0.00     19.59           RANKING
  34      1     42       +2.43      0.00     18.02           RANKING
  35      1     12       +2.45      0.00     16.72           RANKING
  36      1     62       +2.55      0.00     11.68           RANKING
  37      1      6       +2.60      0.00     16.74           RANKING
  38      1      4       +2.63      0.00     17.40           RANKING
  39      1     30       +2.70      0.00     21.63           RANKING
  40      1     89       +2.74      0.00     11.79           RANKING
  41      1     53       +2.76      0.00     21.50           RANKING
  42      1     65       +2.77      0.00     17.23           RANKING
  43      1     97       +2.81      0.00     21.30           RANKING
  44      1     37       +2.82      0.00     20.66           RANKING
  45      1     46       +2.88      0.00     16.76           RANKING
  46      1     29       +2.89      0.00     10.49           RANKING
  47      1     47       +2.90      0.00     16.61           RANKING
  48      1     52       +2.92      0.00     13.75           RANKING
  49      1     68       +2.93      0.00     15.49           RANKING
  50      1      9       +2.94      0.00     15.35           RANKING
  51      1     84       +2.97      0.00     22.39           RANKING
  52      1     20       +3.01      0.00     19.25           RANKING
  53      1     28       +3.06      0.00     21.26           RANKING
  54      1     96       +3.07      0.00     11.66           RANKING
  55      1     98       +3.22      0.00     19.51           RANKING
  56      1     17       +3.25      0.00     15.07           RANKING
  57      1     56       +3.28      0.00     20.34           RANKING
  58      1     59       +3.29      0.00     14.55           RANKING
  59      1     51       +3.32      0.00     13.46           RANKING
  60      1     79       +3.35      0.00     14.59           RANKING
  61      1     35       +3.36      0.00     19.90           RANKING
  62      1     44       +3.39      0.00     15.52           RANKING
  63      1      1       +3.42      0.00     11.45           RANKING
  64      1      2       +3.45      0.00     15.27           RANKING
  65      1     49       +3.47      0.00     18.06           RANKING
  66      1     31       +3.52      0.00     13.15           RANKING
  67      1     11       +3.54      0.00     22.09           RANKING
  68      1     34       +3.67      0.00     11.76           RANKING
  69      1     40       +3.67      0.00     15.75           RANKING
  70      1     86       +3.73      0.00     12.59           RANKING
  71      1    100       +3.75      0.00     20.21           RANKING
  72      1     15       +3.76      0.00     18.51           RANKING
  73      1     16       +3.88      0.00     14.67           RANKING
  74      1     33       +3.90      0.00     22.68           RANKING
  75      1     54       +3.92      0.00     11.88           RANKING
  76      1     58       +3.92      0.00     12.93           RANKING
  77      1     76       +3.97      0.00     10.96           RANKING
  78      1     90       +4.03      0.00     18.23           RANKING
  79      1     64       +4.10      0.00     13.81           RANKING
  80      1     99       +4.23      0.00     14.47           RANKING
  81      1     25       +4.30      0.00     25.68           RANKING
  82      1     10       +4.32      0.00     17.21           RANKING
  83      1     50       +4.35      0.00     13.58           RANKING
  84      1     61       +4.41      0.00     23.41           RANKING
  85      1     22       +4.54      0.00     25.91           RANKING
  86      1     81       +4.57      0.00     19.56           RANKING
  87      1     88       +4.85      0.00     22.16           RANKING
  88      1     41       +5.50      0.00     22.87           RANKING
_______________________________________________________________________



	INFORMATION ENTROPY ANALYSIS FOR THIS CLUSTERING
	________________________________________________


Information entropy for this clustering = 0.96  (rmstol = 2.00 Angstrom)

_______________________________________________________________________


	STATISTICAL MECHANICAL ANALYSIS
	_______________________________


Partition function, Q =    99.55            at Temperature, T = 298.15 K
Free energy,        A ~ -2725.81 kcal/mol   at Temperature, T = 298.15 K
Internal energy,    U =     2.67 kcal/mol   at Temperature, T = 298.15 K
Entropy,            S =     9.15 kcal/mol/K at Temperature, T = 298.15 K

_______________________________________________________________________


	LOWEST ENERGY DOCKED CONFORMATION from EACH CLUSTER
	___________________________________________________



Keeping original residue number (specified in the input PDBQ file) for outputting.

MODEL       71
USER    Run = 71
USER    Cluster Rank = 1
USER    Number of conformations in this cluster = 1
USER  
USER    RMSD from reference structure       = 14.688 A
USER  
USER    Estimated Free Energy of Binding    =   -0.44 kcal/mol  [=(1)+(2)+(3)-(4)]
USER    Estimated Inhibition Constant, Ki   =  474.31 mM (millimolar)  [Temperature = 298.15 K]
USER    
USER    (1) Final Intermolecular Energy     =   -7.60 kcal/mol
USER        vdW + Hbond + desolv Energy     =   -7.17 kcal/mol
USER        Electrostatic Energy            =   -0.43 kcal/mol
USER    (2) Final Total Internal Energy     =  -12.96 kcal/mol
USER    (3) Torsional Free Energy           =   +7.16 kcal/mol
USER    (4) Unbound System's Energy  [=(2)] =  -12.96 kcal/mol
USER    
USER    
USER  
USER    DPF = D:/Protein_go_brrr/autodock/final/mut_D99N/IHP/dock.dpf
USER    NEWDPF move	IHP_ideal_opt.pdbqt
USER    NEWDPF about	0.035000 0.082000 -0.065000
USER    NEWDPF tran0	11.432482 -13.394368 6.418098
USER    NEWDPF axisangle0	0.574295 0.789090 0.217997 158.150109
USER    NEWDPF quaternion0	0.563887 0.774788 0.214046 0.189523
USER    NEWDPF dihe0	162.69 101.29 93.72 26.83 93.45 120.44 -156.56 25.25 152.34 -14.73 12.16 -154.50 -62.49 -116.53 75.25 12.70 -153.54 -89.71 -8.90 -38.79 -26.88 -179.92 12.33 17.09 
USER  
USER                              x       y       z    vdW   Elec        q     RMS 
ATOM      1  C   UNL d   1      10.177 -12.212   6.322 -0.19 -0.05    +0.194    14.688
ATOM      2  C   UNL d   1       9.793 -13.621   5.868 -0.22 -0.05    +0.194    14.688
ATOM      3  C   UNL d   1      10.887 -14.257   5.008 -0.15 -0.02    +0.194    14.688
ATOM      4  C   UNL d   1      12.266 -14.216   5.662 -0.19 -0.05    +0.194    14.688
ATOM      5  C   UNL d   1      12.643 -12.855   6.232 -0.18 -0.08    +0.194    14.688
ATOM      6  C   UNL d   1      11.527 -12.192   7.041 -0.17 -0.06    +0.194    14.688
ATOM      7  O   UNL d   1       9.191 -11.759   7.254 -0.19 +0.08    -0.278    14.688
ATOM      8  P   UNL d   1       8.563 -10.305   7.047 -0.32 -0.13    +0.473    14.688
ATOM      9  O   UNL d   1       9.253  -9.457   6.038 -0.35 +0.05    -0.228    14.688
ATOM     10  O   UNL d   1       7.035 -10.592   6.687 -0.93 +0.00    -0.303    14.688
ATOM     11  H   UNL d   1       6.856 -11.548   6.759 -0.17 -0.03    +0.222    14.688
ATOM     12  O   UNL d   1       8.451  -9.693   8.509 -0.71 +0.13    -0.303    14.688
ATOM     13  H   UNL d   1       9.310  -9.679   8.988 +0.10 -0.08    +0.222    14.688
ATOM     14  O   UNL d   1       9.586 -14.443   7.023 -0.11 +0.05    -0.278    14.688
ATOM     15  P   UNL d   1       8.085 -14.537   7.575 -0.08 -0.11    +0.473    14.688
ATOM     16  O   UNL d   1       7.454 -13.257   8.027 -0.17 +0.06    -0.228    14.688
ATOM     17  O   UNL d   1       7.281 -15.239   6.392 -0.15 +0.08    -0.303    14.688
ATOM     18  H   UNL d   1       7.861 -15.410   5.626 -0.11 -0.04    +0.222    14.688
ATOM     19  O   UNL d   1       8.134 -15.698   8.661 -0.02 +0.04    -0.303    14.688
ATOM     20  H   UNL d   1       8.779 -16.389   8.422 +0.03 -0.02    +0.222    14.688
ATOM     21  O   UNL d   1      11.893 -10.824   7.205 -0.22 +0.12    -0.278    14.688
ATOM     22  P   UNL d   1      11.874 -10.167   8.659 -0.06 -0.18    +0.473    14.688
ATOM     23  O   UNL d   1      13.179  -9.917   9.337 -0.10 +0.08    -0.228    14.688
ATOM     24  O   UNL d   1      10.987  -8.868   8.417 -0.33 +0.11    -0.303    14.688
ATOM     25  H   UNL d   1      10.372  -9.050   7.662 +0.07 -0.05    +0.222    14.688
ATOM     26  O   UNL d   1      10.851 -11.127   9.435 -0.04 +0.10    -0.303    14.688
ATOM     27  H   UNL d   1      10.013 -11.180   8.931 +0.08 -0.08    +0.222    14.688
ATOM     28  O   UNL d   1      10.576 -15.637   4.869 -0.16 -0.02    -0.278    14.688
ATOM     29  P   UNL d   1      10.683 -16.615   6.122 -0.06 -0.01    +0.473    14.688
ATOM     30  O   UNL d   1      11.402 -16.069   7.301 -0.03 +0.02    -0.228    14.688
ATOM     31  O   UNL d   1       9.138 -16.986   6.320 -0.06 +0.02    -0.303    14.688
ATOM     32  H   UNL d   1       8.796 -16.495   7.103 +0.04 -0.02    +0.222    14.688
ATOM     33  O   UNL d   1      11.279 -17.937   5.463 -0.04 -0.02    -0.303    14.688
ATOM     34  H   UNL d   1      12.263 -17.855   5.414 +0.03 +0.01    +0.222    14.688
ATOM     35  O   UNL d   1      13.725 -13.097   7.129 -0.05 +0.10    -0.278    14.688
ATOM     36  P   UNL d   1      14.923 -12.050   7.246 -0.06 -0.17    +0.473    14.688
ATOM     37  O   UNL d   1      16.230 -12.499   6.674 -0.08 +0.09    -0.228    14.688
ATOM     38  O   UNL d   1      14.304 -10.766   6.536 -0.20 +0.16    -0.303    14.688
ATOM     39  H   UNL d   1      13.743 -10.282   7.180 -0.41 -0.14    +0.222    14.688
ATOM     40  O   UNL d   1      14.901 -11.680   8.792 -0.02 +0.07    -0.303    14.688
ATOM     41  H   UNL d   1      14.022 -11.340   9.073 +0.04 -0.05    +0.222    14.688
ATOM     42  O   UNL d   1      13.219 -14.523   4.638 -0.21 +0.17    -0.278    14.688
ATOM     43  P   UNL d   1      13.700 -16.033   4.459 -0.12 -0.05    +0.473    14.688
ATOM     44  O   UNL d   1      14.026 -16.801   5.693 -0.04 +0.02    -0.228    14.688
ATOM     45  O   UNL d   1      12.531 -16.670   3.586 -0.14 -0.18    -0.303    14.688
ATOM     46  H   UNL d   1      11.672 -16.625   4.051 +0.04 +0.07    +0.222    14.688
ATOM     47  O   UNL d   1      14.883 -15.916   3.384 -0.52 +0.09    -0.303    14.688
ATOM     48  H   UNL d   1      15.260 -15.013   3.416 -0.27 -0.45    +0.222    14.688
TER
ENDMDL
MODEL       80
USER    Run = 80
USER    Cluster Rank = 2
USER    Number of conformations in this cluster = 1
USER  
USER    RMSD from reference structure       = 19.708 A
USER  
USER    Estimated Free Energy of Binding    =   +0.07 kcal/mol  [=(1)+(2)+(3)-(4)]
USER    
USER    (1) Final Intermolecular Energy     =   -7.09 kcal/mol
USER        vdW + Hbond + desolv Energy     =   -6.18 kcal/mol
USER        Electrostatic Energy            =   -0.92 kcal/mol
USER    (2) Final Total Internal Energy     =  -11.77 kcal/mol
USER    (3) Torsional Free Energy           =   +7.16 kcal/mol
USER    (4) Unbound System's Energy  [=(2)] =  -11.77 kcal/mol
USER    
USER    
USER  
USER    DPF = D:/Protein_go_brrr/autodock/final/mut_D99N/IHP/dock.dpf
USER    NEWDPF move	IHP_ideal_opt.pdbqt
USER    NEWDPF about	0.035000 0.082000 -0.065000
USER    NEWDPF tran0	2.829974 -11.820867 -19.121652
USER    NEWDPF axisangle0	0.165358 -0.986163 0.011797 -83.140815
USER    NEWDPF quaternion0	0.109722 -0.654359 0.007828 -0.748141
USER    NEWDPF dihe0	175.76 -119.62 141.42 11.89 145.35 -179.87 -12.36 -153.76 53.08 116.65 165.56 107.34 -101.15 -180.00 174.83 120.06 -79.18 156.33 51.80 8.57 26.90 -7.68 180.00 -165.72 
USER  
USER                              x       y       z    vdW   Elec        q     RMS 
ATOM      1  C   UNL d   1       2.375 -12.991 -17.935 -0.15 +0.01    +0.194    19.708
ATOM      2  C   UNL d   1       2.681 -13.546 -19.327 -0.04 -0.01    +0.194    19.708
ATOM      3  C   UNL d   1       2.068 -12.681 -20.430 -0.02 -0.03    +0.194    19.708
ATOM      4  C   UNL d   1       2.431 -11.203 -20.306 -0.05 -0.05    +0.194    19.708
ATOM      5  C   UNL d   1       2.249 -10.635 -18.904 -0.08 -0.12    +0.194    19.708
ATOM      6  C   UNL d   1       2.807 -11.530 -17.796 -0.18 -0.05    +0.194    19.708
ATOM      7  O   UNL d   1       3.119 -13.749 -16.978 -0.39 -0.20    -0.278    19.708
ATOM      8  P   UNL d   1       2.678 -15.258 -16.697 +0.07 +0.35    +0.473    19.708
ATOM      9  O   UNL d   1       1.228 -15.451 -16.424 -0.42 -0.18    -0.228    19.708
ATOM     10  O   UNL d   1       3.187 -16.056 -17.981 -0.02 -0.05    -0.303    19.708
ATOM     11  H   UNL d   1       3.857 -15.525 -18.451 +0.04 +0.03    +0.222    19.708
ATOM     12  O   UNL d   1       3.671 -15.775 -15.569 -0.21 -0.19    -0.303    19.708
ATOM     13  H   UNL d   1       3.666 -16.753 -15.470 +0.04 +0.08    +0.222    19.708
ATOM     14  O   UNL d   1       4.102 -13.584 -19.512 -0.03 +0.00    -0.278    19.708
ATOM     15  P   UNL d   1       4.691 -14.866 -20.270 -0.02 -0.00    +0.473    19.708
ATOM     16  O   UNL d   1       5.750 -15.642 -19.553 -0.08 -0.00    -0.228    19.708
ATOM     17  O   UNL d   1       3.404 -15.743 -20.606 -0.00 -0.00    -0.303    19.708
ATOM     18  H   UNL d   1       2.688 -15.190 -20.973 +0.01 -0.00    +0.222    19.708
ATOM     19  O   UNL d   1       5.094 -14.325 -21.710 -0.01 +0.01    -0.303    19.708
ATOM     20  H   UNL d   1       4.379 -13.794 -22.109 +0.01 -0.01    +0.222    19.708
ATOM     21  O   UNL d   1       2.268 -11.050 -16.566 -0.52 +0.08    -0.278    19.708
ATOM     22  P   UNL d   1       2.845  -9.711 -15.919 -0.33 -0.11    +0.473    19.708
ATOM     23  O   UNL d   1       2.710  -9.526 -14.445 -0.51 -0.03    -0.228    19.708
ATOM     24  O   UNL d   1       4.343  -9.708 -16.457 -0.44 +0.05    -0.303    19.708
ATOM     25  H   UNL d   1       4.333  -9.381 -17.393 -0.17 -0.07    +0.222    19.708
ATOM     26  O   UNL d   1       2.162  -8.586 -16.834 -0.33 +0.24    -0.303    19.708
ATOM     27  H   UNL d   1       1.528  -9.011 -17.446 -0.41 -0.37    +0.222    19.708
ATOM     28  O   UNL d   1       2.628 -13.104 -21.667 +0.00 +0.02    -0.278    19.708
ATOM     29  P   UNL d   1       1.784 -14.019 -22.660 +0.01 -0.02    +0.473    19.708
ATOM     30  O   UNL d   1       1.031 -13.294 -23.716 +0.00 +0.01    -0.228    19.708
ATOM     31  O   UNL d   1       2.926 -15.029 -23.146 -0.00 +0.01    -0.303    19.708
ATOM     32  H   UNL d   1       3.499 -15.250 -22.376 +0.00 -0.00    +0.222    19.708
ATOM     33  O   UNL d   1       0.933 -14.910 -21.652 +0.00 +0.02    -0.303    19.708
ATOM     34  H   UNL d   1       1.408 -15.763 -21.496 +0.00 -0.01    +0.222    19.708
ATOM     35  O   UNL d   1       2.996  -9.420 -18.878 -0.16 +0.11    -0.278    19.708
ATOM     36  P   UNL d   1       4.505  -9.393 -19.394 -0.15 -0.12    +0.473    19.708
ATOM     37  O   UNL d   1       5.302 -10.630 -19.123 -0.18 +0.07    -0.228    19.708
ATOM     38  O   UNL d   1       4.316  -9.062 -20.940 -0.13 +0.04    -0.303    19.708
ATOM     39  H   UNL d   1       3.384  -9.237 -21.194 +0.06 -0.03    +0.222    19.708
ATOM     40  O   UNL d   1       5.052  -8.034 -18.775 -0.32 +0.08    -0.303    19.708
ATOM     41  H   UNL d   1       5.221  -8.115 -17.810 -0.34 -0.06    +0.222    19.708
ATOM     42  O   UNL d   1       1.543 -10.484 -21.169 -0.03 +0.06    -0.278    19.708
ATOM     43  P   UNL d   1       0.088 -10.106 -20.637 -0.08 -0.19    +0.473    19.708
ATOM     44  O   UNL d   1      -0.965  -9.830 -21.654 -0.08 +0.04    -0.228    19.708
ATOM     45  O   UNL d   1      -0.252 -11.314 -19.659 -0.10 +0.24    -0.303    19.708
ATOM     46  H   UNL d   1       0.009 -11.114 -18.738 +0.05 -0.42    +0.222    19.708
ATOM     47  O   UNL d   1       0.375  -8.918 -19.599 -0.17 +0.22    -0.303    19.708
ATOM     48  H   UNL d   1       0.772  -9.290 -18.785 -0.35 -0.33    +0.222    19.708
TER
ENDMDL
MODEL       45
USER    Run = 45
USER    Cluster Rank = 3
USER    Number of conformations in this cluster = 1
USER  
USER    RMSD from reference structure       = 12.515 A
USER  
USER    Estimated Free Energy of Binding    =   +0.20 kcal/mol  [=(1)+(2)+(3)-(4)]
USER    
USER    (1) Final Intermolecular Energy     =   -6.96 kcal/mol
USER        vdW + Hbond + desolv Energy     =   -6.61 kcal/mol
USER        Electrostatic Energy            =   -0.35 kcal/mol
USER    (2) Final Total Internal Energy     =  -10.83 kcal/mol
USER    (3) Torsional Free Energy           =   +7.16 kcal/mol
USER    (4) Unbound System's Energy  [=(2)] =  -10.83 kcal/mol
USER    
USER    
USER  
USER    DPF = D:/Protein_go_brrr/autodock/final/mut_D99N/IHP/dock.dpf
USER    NEWDPF move	IHP_ideal_opt.pdbqt
USER    NEWDPF about	0.035000 0.082000 -0.065000
USER    NEWDPF tran0	-12.867850 1.194776 8.942712
USER    NEWDPF axisangle0	0.777157 -0.020793 -0.628963 -156.026730
USER    NEWDPF quaternion0	0.760212 -0.020340 -0.615249 -0.207684
USER    NEWDPF dihe0	-179.78 -24.78 9.43 86.98 42.70 -116.28 128.39 10.74 -73.65 48.71 1.74 163.72 94.55 176.36 131.64 170.16 2.84 -166.21 -29.37 -44.18 139.66 32.81 123.55 -27.79 
USER  
USER                              x       y       z    vdW   Elec        q     RMS 
ATOM      1  C   UNL d   1     -13.511   1.417   7.355 -0.07 +0.07    +0.194    12.515
ATOM      2  C   UNL d   1     -13.645   2.615   8.295 -0.10 +0.05    +0.194    12.515
ATOM      3  C   UNL d   1     -14.081   2.188   9.698 -0.10 +0.06    +0.194    12.515
ATOM      4  C   UNL d   1     -13.207   1.085  10.290 -0.11 +0.06    +0.194    12.515
ATOM      5  C   UNL d   1     -12.952  -0.080   9.343 -0.08 +0.06    +0.194    12.515
ATOM      6  C   UNL d   1     -12.575   0.348   7.923 -0.14 +0.09    +0.194    12.515
ATOM      7  O   UNL d   1     -12.938   1.875   6.127 -0.09 -0.10    -0.278    12.515
ATOM      8  P   UNL d   1     -13.289   1.083   4.784 -0.09 +0.32    +0.473    12.515
ATOM      9  O   UNL d   1     -13.377   1.926   3.561 -0.13 -0.10    -0.228    12.515
ATOM     10  O   UNL d   1     -12.161  -0.041   4.693 -0.73 -0.44    -0.303    12.515
ATOM     11  H   UNL d   1     -11.791  -0.206   5.580 +0.06 +0.25    +0.222    12.515
ATOM     12  O   UNL d   1     -14.582   0.229   5.134 -0.06 -0.24    -0.303    12.515
ATOM     13  H   UNL d   1     -14.400  -0.509   5.758 +0.03 +0.22    +0.222    12.515
ATOM     14  O   UNL d   1     -12.378   3.277   8.393 -0.14 -0.06    -0.278    12.515
ATOM     15  P   UNL d   1     -12.068   4.396   7.290 -0.17 +0.05    +0.473    12.515
ATOM     16  O   UNL d   1     -10.771   4.272   6.553 -0.36 -0.01    -0.228    12.515
ATOM     17  O   UNL d   1     -13.334   4.350   6.325 -0.06 -0.04    -0.303    12.515
ATOM     18  H   UNL d   1     -13.221   3.675   5.629 +0.08 +0.04    +0.222    12.515
ATOM     19  O   UNL d   1     -12.295   5.775   8.050 -0.28 -0.01    -0.303    12.515
ATOM     20  H   UNL d   1     -12.139   5.689   9.008 -0.23 -0.02    +0.222    12.515
ATOM     21  O   UNL d   1     -12.708  -0.806   7.096 -0.17 -0.21    -0.278    12.515
ATOM     22  P   UNL d   1     -13.896  -1.837   7.360 -0.05 +0.35    +0.473    12.515
ATOM     23  O   UNL d   1     -14.263  -2.784   6.268 -0.56 -0.33    -0.228    12.515
ATOM     24  O   UNL d   1     -13.430  -2.530   8.715 -0.02 -0.13    -0.303    12.515
ATOM     25  H   UNL d   1     -12.447  -2.433   8.789 +0.07 +0.09    +0.222    12.515
ATOM     26  O   UNL d   1     -15.064  -0.865   7.870 -0.00 -0.13    -0.303    12.515
ATOM     27  H   UNL d   1     -15.373  -0.314   7.122 +0.02 +0.10    +0.222    12.515
ATOM     28  O   UNL d   1     -13.911   3.307  10.559 -0.19 -0.12    -0.278    12.515
ATOM     29  P   UNL d   1     -14.951   3.585  11.733 -0.09 +0.24    +0.473    12.515
ATOM     30  O   UNL d   1     -14.372   4.138  12.984 -0.64 -0.22    -0.228    12.515
ATOM     31  O   UNL d   1     -16.010   4.500  10.956 -0.10 -0.11    -0.303    12.515
ATOM     32  H   UNL d   1     -16.727   4.751  11.583 +0.03 +0.07    +0.222    12.515
ATOM     33  O   UNL d   1     -15.708   2.189  11.845 -0.03 -0.11    -0.303    12.515
ATOM     34  H   UNL d   1     -15.088   1.516  12.219 +0.04 +0.09    +0.222    12.515
ATOM     35  O   UNL d   1     -11.831  -0.778   9.881 -0.10 -0.09    -0.278    12.515
ATOM     36  P   UNL d   1     -10.400  -0.659   9.188 -0.25 +0.16    +0.473    12.515
ATOM     37  O   UNL d   1      -9.962   0.729   8.845 -0.29 -0.07    -0.228    12.515
ATOM     38  O   UNL d   1      -9.464  -1.398  10.243 -0.34 -0.07    -0.303    12.515
ATOM     39  H   UNL d   1      -8.596  -0.941  10.278 -0.44 +0.01    +0.222    12.515
ATOM     40  O   UNL d   1     -10.516  -1.697   7.988 -0.56 -0.16    -0.303    12.515
ATOM     41  H   UNL d   1     -11.429  -2.051   7.900 +0.09 +0.13    +0.222    12.515
ATOM     42  O   UNL d   1     -13.911   0.561  11.422 -0.05 -0.10    -0.278    12.515
ATOM     43  P   UNL d   1     -13.092   0.218  12.747 -0.08 +0.22    +0.473    12.515
ATOM     44  O   UNL d   1     -13.132  -1.190  13.233 -0.07 -0.08    -0.228    12.515
ATOM     45  O   UNL d   1     -11.631   0.746  12.402 -0.15 -0.16    -0.303    12.515
ATOM     46  H   UNL d   1     -11.193   0.179  11.737 +0.11 +0.09    +0.222    12.515
ATOM     47  O   UNL d   1     -13.602   1.324  13.789 -0.05 -0.28    -0.303    12.515
ATOM     48  H   UNL d   1     -14.034   2.054  13.299 +0.05 +0.20    +0.222    12.515
TER
ENDMDL
MODEL       87
USER    Run = 87
USER    Cluster Rank = 4
USER    Number of conformations in this cluster = 2
USER  
USER    RMSD from reference structure       = 14.321 A
USER  
USER    Estimated Free Energy of Binding    =   +0.48 kcal/mol  [=(1)+(2)+(3)-(4)]
USER    
USER    (1) Final Intermolecular Energy     =   -6.68 kcal/mol
USER        vdW + Hbond + desolv Energy     =   -6.21 kcal/mol
USER        Electrostatic Energy            =   -0.47 kcal/mol
USER    (2) Final Total Internal Energy     =  -10.90 kcal/mol
USER    (3) Torsional Free Energy           =   +7.16 kcal/mol
USER    (4) Unbound System's Energy  [=(2)] =  -10.90 kcal/mol
USER    
USER    
USER  
USER    DPF = D:/Protein_go_brrr/autodock/final/mut_D99N/IHP/dock.dpf
USER    NEWDPF move	IHP_ideal_opt.pdbqt
USER    NEWDPF about	0.035000 0.082000 -0.065000
USER    NEWDPF tran0	11.896805 -10.278277 8.742396
USER    NEWDPF axisangle0	-0.478222 -0.088848 0.873733 42.611551
USER    NEWDPF quaternion0	-0.173760 -0.032282 0.317467 0.931655
USER    NEWDPF dihe0	-98.73 -28.67 143.31 -9.94 164.69 64.45 -115.87 71.84 75.38 92.69 180.00 -71.61 92.82 65.31 -173.06 25.58 -121.46 0.87 -37.42 -39.57 31.60 -56.47 -54.74 131.68 
USER  
USER                              x       y       z    vdW   Elec        q     RMS 
ATOM      1  C   UNL d   1      12.320 -11.933   9.001 -0.05 -0.05    +0.194    14.321
ATOM      2  C   UNL d   1      10.860 -11.675   8.624 -0.09 -0.06    +0.194    14.321
ATOM      3  C   UNL d   1      10.286 -10.471   9.373 -0.14 -0.08    +0.194    14.321
ATOM      4  C   UNL d   1      11.146  -9.216   9.243 -0.20 -0.08    +0.194    14.321
ATOM      5  C   UNL d   1      12.629  -9.451   9.498 -0.13 -0.07    +0.194    14.321
ATOM      6  C   UNL d   1      13.189 -10.691   8.799 -0.09 -0.07    +0.194    14.321
ATOM      7  O   UNL d   1      12.829 -12.955   8.140 -0.03 +0.07    -0.278    14.321
ATOM      8  P   UNL d   1      14.131 -13.757   8.602 +0.01 -0.09    +0.473    14.321
ATOM      9  O   UNL d   1      14.153 -15.196   8.222 -0.01 +0.03    -0.228    14.321
ATOM     10  O   UNL d   1      15.340 -12.924   7.979 -0.01 +0.07    -0.303    14.321
ATOM     11  H   UNL d   1      15.768 -12.396   8.678 +0.03 -0.04    +0.222    14.321
ATOM     12  O   UNL d   1      14.278 -13.447  10.153 +0.00 +0.04    -0.303    14.321
ATOM     13  H   UNL d   1      14.600 -12.536  10.335 +0.01 -0.03    +0.222    14.321
ATOM     14  O   UNL d   1      10.779 -11.419   7.216 -0.18 +0.08    -0.278    14.321
ATOM     15  P   UNL d   1      10.505 -12.683   6.273 -0.12 -0.12    +0.473    14.321
ATOM     16  O   UNL d   1       9.275 -12.633   5.423 -0.05 +0.09    -0.228    14.321
ATOM     17  O   UNL d   1      11.842 -12.825   5.417 -0.20 +0.10    -0.303    14.321
ATOM     18  H   UNL d   1      12.632 -12.775   5.988 +0.09 -0.09    +0.222    14.321
ATOM     19  O   UNL d   1      10.616 -13.936   7.247 -0.06 +0.06    -0.303    14.321
ATOM     20  H   UNL d   1      11.533 -14.083   7.542 +0.05 -0.04    +0.222    14.321
ATOM     21  O   UNL d   1      14.455 -10.965   9.395 -0.03 +0.06    -0.278    14.321
ATOM     22  P   UNL d   1      15.688  -9.993   9.115 -0.02 -0.09    +0.473    14.321
ATOM     23  O   UNL d   1      17.044 -10.598   8.973 -0.02 +0.02    -0.228    14.321
ATOM     24  O   UNL d   1      15.182  -9.183   7.842 -0.12 +0.13    -0.303    14.321
ATOM     25  H   UNL d   1      14.826  -8.312   8.153 -0.13 -0.11    +0.222    14.321
ATOM     26  O   UNL d   1      15.522  -8.910  10.285 -0.02 +0.05    -0.303    14.321
ATOM     27  H   UNL d   1      15.240  -8.057   9.896 +0.06 -0.05    +0.222    14.321
ATOM     28  O   UNL d   1       9.043 -10.141   8.765 -0.59 +0.12    -0.278    14.321
ATOM     29  P   UNL d   1       7.909 -11.247   8.602 -0.18 -0.21    +0.473    14.321
ATOM     30  O   UNL d   1       8.254 -12.599   9.111 -0.08 +0.07    -0.228    14.321
ATOM     31  O   UNL d   1       6.683 -10.497   9.306 -0.09 +0.32    -0.303    14.321
ATOM     32  H   UNL d   1       6.901 -10.364  10.257 -0.41 -0.47    +0.222    14.321
ATOM     33  O   UNL d   1       7.550 -11.132   7.055 -0.66 +0.08    -0.303    14.321
ATOM     34  H   UNL d   1       7.554 -12.036   6.656 -0.39 -0.10    +0.222    14.321
ATOM     35  O   UNL d   1      13.300  -8.320   8.948 -0.09 +0.14    -0.278    14.321
ATOM     36  P   UNL d   1      13.281  -6.921   9.715 -0.17 -0.19    +0.473    14.321
ATOM     37  O   UNL d   1      12.011  -6.140   9.601 -0.40 +0.11    -0.228    14.321
ATOM     38  O   UNL d   1      13.649  -7.359  11.201 -0.04 +0.08    -0.303    14.321
ATOM     39  H   UNL d   1      13.863  -8.317  11.210 +0.05 -0.05    +0.222    14.321
ATOM     40  O   UNL d   1      14.607  -6.223   9.182 -0.16 +0.14    -0.303    14.321
ATOM     41  H   UNL d   1      14.656  -6.235   8.201 -0.48 -0.17    +0.222    14.321
ATOM     42  O   UNL d   1      10.688  -8.294  10.238 -0.22 +0.16    -0.278    14.321
ATOM     43  P   UNL d   1       9.866  -8.853  11.486 -0.09 -0.42    +0.473    14.321
ATOM     44  O   UNL d   1      10.406 -10.055  12.181 -0.04 +0.12    -0.228    14.321
ATOM     45  O   UNL d   1       9.730  -7.569  12.417 -0.12 +0.34    -0.303    14.321
ATOM     46  H   UNL d   1       8.819  -7.215  12.407 -0.45 -0.50    +0.222    14.321
ATOM     47  O   UNL d   1       8.378  -8.997  10.910 +0.05 +0.57    -0.303    14.321
ATOM     48  H   UNL d   1       8.170  -9.946  10.786 -0.20 -0.34    +0.222    14.321
TER
ENDMDL
MODEL       82
USER    Run = 82
USER    Cluster Rank = 5
USER    Number of conformations in this cluster = 2
USER  
USER    RMSD from reference structure       = 16.624 A
USER  
USER    Estimated Free Energy of Binding    =   +0.62 kcal/mol  [=(1)+(2)+(3)-(4)]
USER    
USER    (1) Final Intermolecular Energy     =   -6.54 kcal/mol
USER        vdW + Hbond + desolv Energy     =   -6.14 kcal/mol
USER        Electrostatic Energy            =   -0.40 kcal/mol
USER    (2) Final Total Internal Energy     =  -13.40 kcal/mol
USER    (3) Torsional Free Energy           =   +7.16 kcal/mol
USER    (4) Unbound System's Energy  [=(2)] =  -13.40 kcal/mol
USER    
USER    
USER  
USER    DPF = D:/Protein_go_brrr/autodock/final/mut_D99N/IHP/dock.dpf
USER    NEWDPF move	IHP_ideal_opt.pdbqt
USER    NEWDPF about	0.035000 0.082000 -0.065000
USER    NEWDPF tran0	17.753891 -7.444460 6.614327
USER    NEWDPF axisangle0	-0.110791 0.230876 -0.966655 -168.163146
USER    NEWDPF quaternion0	-0.110201 0.229646 -0.961502 -0.103112
USER    NEWDPF dihe0	116.18 73.69 105.89 115.34 20.39 -162.95 -107.51 -13.21 107.84 -158.87 153.45 -62.58 178.14 98.37 -47.28 151.94 -180.00 44.38 21.18 7.29 176.88 25.37 13.11 -168.91 
USER  
USER                              x       y       z    vdW   Elec        q     RMS 
ATOM      1  C   UNL d   1      16.632  -7.312   7.921 -0.21 -0.04    +0.194    16.624
ATOM      2  C   UNL d   1      17.609  -6.145   7.768 -0.15 -0.01    +0.194    16.624
ATOM      3  C   UNL d   1      19.030  -6.630   7.474 -0.10 +0.02    +0.194    16.624
ATOM      4  C   UNL d   1      19.103  -7.602   6.299 -0.20 +0.06    +0.194    16.624
ATOM      5  C   UNL d   1      18.068  -8.719   6.352 -0.24 +0.02    +0.194    16.624
ATOM      6  C   UNL d   1      16.658  -8.241   6.707 -0.25 -0.03    +0.194    16.624
ATOM      7  O   UNL d   1      15.310  -6.777   8.020 -0.23 +0.13    -0.278    16.624
ATOM      8  P   UNL d   1      14.636  -6.680   9.465 -0.12 -0.18    +0.473    16.624
ATOM      9  O   UNL d   1      13.263  -7.244   9.561 -0.25 +0.09    -0.228    16.624
ATOM     10  O   UNL d   1      15.682  -7.404  10.429 -0.03 +0.06    -0.303    16.624
ATOM     11  H   UNL d   1      16.024  -8.207   9.994 +0.04 -0.04    +0.222    16.624
ATOM     12  O   UNL d   1      14.792  -5.157   9.891 -0.21 +0.11    -0.303    16.624
ATOM     13  H   UNL d   1      14.817  -4.542   9.123 -0.29 -0.13    +0.222    16.624
ATOM     14  O   UNL d   1      17.177  -5.314   6.683 -0.16 +0.03    -0.278    16.624
ATOM     15  P   UNL d   1      17.284  -3.732   6.907 -0.16 -0.05    +0.473    16.624
ATOM     16  O   UNL d   1      17.430  -2.888   5.680 -0.21 +0.02    -0.228    16.624
ATOM     17  O   UNL d   1      15.983  -3.371   7.753 -0.19 +0.08    -0.303    16.624
ATOM     18  H   UNL d   1      15.532  -4.179   8.066 -0.51 -0.14    +0.222    16.624
ATOM     19  O   UNL d   1      18.431  -3.562   7.997 -0.03 +0.01    -0.303    16.624
ATOM     20  H   UNL d   1      19.261  -3.989   7.716 +0.05 +0.01    +0.222    16.624
ATOM     21  O   UNL d   1      15.905  -9.401   7.051 -0.21 +0.09    -0.278    16.624
ATOM     22  P   UNL d   1      16.151 -10.118   8.455 -0.03 -0.09    +0.473    16.624
ATOM     23  O   UNL d   1      17.406  -9.803   9.196 -0.02 +0.02    -0.228    16.624
ATOM     24  O   UNL d   1      14.809  -9.770   9.237 -0.06 +0.08    -0.303    16.624
ATOM     25  H   UNL d   1      14.614  -8.808   9.102 +0.03 -0.08    +0.222    16.624
ATOM     26  O   UNL d   1      15.924 -11.659   8.078 -0.02 +0.07    -0.303    16.624
ATOM     27  H   UNL d   1      16.070 -11.780   7.117 +0.06 -0.07    +0.222    16.624
ATOM     28  O   UNL d   1      19.795  -5.499   7.077 -0.06 -0.04    -0.278    16.624
ATOM     29  P   UNL d   1      21.264  -5.281   7.651 -0.01 +0.09    +0.473    16.624
ATOM     30  O   UNL d   1      22.330  -5.098   6.631 -0.06 -0.07    -0.228    16.624
ATOM     31  O   UNL d   1      20.996  -4.058   8.648 -0.00 -0.03    -0.303    16.624
ATOM     32  H   UNL d   1      20.586  -3.321   8.138 +0.02 +0.01    +0.222    16.624
ATOM     33  O   UNL d   1      21.423  -6.515   8.644 -0.01 -0.06    -0.303    16.624
ATOM     34  H   UNL d   1      21.105  -7.334   8.191 +0.03 +0.06    +0.222    16.624
ATOM     35  O   UNL d   1      18.010  -9.255   5.032 -0.59 -0.04    -0.278    16.624
ATOM     36  P   UNL d   1      17.793 -10.820   4.808 -0.27 -0.09    +0.473    16.624
ATOM     37  O   UNL d   1      18.671 -11.452   3.775 -0.35 +0.01    -0.228    16.624
ATOM     38  O   UNL d   1      17.999 -11.391   6.280 -0.07 +0.04    -0.303    16.624
ATOM     39  H   UNL d   1      17.607 -10.764   6.926 +0.07 -0.02    +0.222    16.624
ATOM     40  O   UNL d   1      16.222 -10.915   4.577 -0.28 +0.23    -0.303    16.624
ATOM     41  H   UNL d   1      15.972 -11.746   4.114 -0.44 -0.37    +0.222    16.624
ATOM     42  O   UNL d   1      20.393  -8.220   6.351 -0.24 -0.12    -0.278    16.624
ATOM     43  P   UNL d   1      20.631  -9.422   7.372 -0.08 +0.17    +0.473    16.624
ATOM     44  O   UNL d   1      20.361 -10.803   6.882 -0.08 -0.07    -0.228    16.624
ATOM     45  O   UNL d   1      22.130  -9.183   7.849 -0.08 -0.19    -0.303    16.624
ATOM     46  H   UNL d   1      22.180  -8.493   8.541 +0.02 +0.09    +0.222    16.624
ATOM     47  O   UNL d   1      19.801  -8.973   8.667 -0.01 -0.04    -0.303    16.624
ATOM     48  H   UNL d   1      19.076  -9.613   8.824 +0.03 +0.01    +0.222    16.624
TER
ENDMDL
MODEL       67
USER    Run = 67
USER    Cluster Rank = 6
USER    Number of conformations in this cluster = 2
USER  
USER    RMSD from reference structure       = 14.399 A
USER  
USER    Estimated Free Energy of Binding    =   +0.87 kcal/mol  [=(1)+(2)+(3)-(4)]
USER    
USER    (1) Final Intermolecular Energy     =   -6.28 kcal/mol
USER        vdW + Hbond + desolv Energy     =   -5.87 kcal/mol
USER        Electrostatic Energy            =   -0.42 kcal/mol
USER    (2) Final Total Internal Energy     =  -12.77 kcal/mol
USER    (3) Torsional Free Energy           =   +7.16 kcal/mol
USER    (4) Unbound System's Energy  [=(2)] =  -12.77 kcal/mol
USER    
USER    
USER  
USER    DPF = D:/Protein_go_brrr/autodock/final/mut_D99N/IHP/dock.dpf
USER    NEWDPF move	IHP_ideal_opt.pdbqt
USER    NEWDPF about	0.035000 0.082000 -0.065000
USER    NEWDPF tran0	9.501496 -13.603280 8.771785
USER    NEWDPF axisangle0	-0.510985 0.155511 -0.845405 139.343949
USER    NEWDPF quaternion0	-0.479161 0.145825 -0.792753 0.347394
USER    NEWDPF dihe0	10.10 113.73 -123.11 18.32 105.43 113.83 168.68 88.86 -29.63 71.03 80.95 -168.64 -63.26 -180.00 180.00 -85.25 -41.70 163.72 -154.37 -5.29 6.39 -23.45 172.22 3.05 
USER  
USER                              x       y       z    vdW   Elec        q     RMS 
ATOM      1  C   UNL d   1      10.260 -12.899  10.154 -0.01 -0.05    +0.194    14.399
ATOM      2  C   UNL d   1      10.946 -12.628   8.814 -0.04 -0.05    +0.194    14.399
ATOM      3  C   UNL d   1      11.007 -13.885   7.944 -0.05 -0.04    +0.194    14.399
ATOM      4  C   UNL d   1       9.650 -14.563   7.772 -0.07 -0.03    +0.194    14.399
ATOM      5  C   UNL d   1       8.879 -14.750   9.073 -0.02 -0.03    +0.194    14.399
ATOM      6  C   UNL d   1       8.871 -13.511   9.971 -0.02 -0.05    +0.194    14.399
ATOM      7  O   UNL d   1      10.090 -11.650  10.829 -0.02 +0.10    -0.278    14.399
ATOM      8  P   UNL d   1       8.825 -10.749  10.450 -0.08 -0.35    +0.473    14.399
ATOM      9  O   UNL d   1       8.087 -11.179   9.232 -0.18 +0.13    -0.228    14.399
ATOM     10  O   UNL d   1       7.928 -10.770  11.769 -0.10 +0.37    -0.303    14.399
ATOM     11  H   UNL d   1       6.985 -10.718  11.523 -0.53 -0.44    +0.222    14.399
ATOM     12  O   UNL d   1       9.369  -9.256  10.442 -0.37 +0.26    -0.303    14.399
ATOM     13  H   UNL d   1       9.995  -9.078   9.704 +0.08 -0.11    +0.222    14.399
ATOM     14  O   UNL d   1      10.211 -11.620   8.109 -0.09 +0.08    -0.278    14.399
ATOM     15  P   UNL d   1      11.042 -10.345   7.611 -0.18 -0.17    +0.473    14.399
ATOM     16  O   UNL d   1      10.547  -9.004   8.055 -0.48 +0.06    -0.228    14.399
ATOM     17  O   UNL d   1      12.532 -10.642   8.090 -0.11 +0.13    -0.303    14.399
ATOM     18  H   UNL d   1      13.181 -10.356   7.418 -0.35 -0.13    +0.222    14.399
ATOM     19  O   UNL d   1      11.167 -10.542   6.037 -0.13 +0.11    -0.303    14.399
ATOM     20  H   UNL d   1      11.356 -11.470   5.804 +0.11 -0.07    +0.222    14.399
ATOM     21  O   UNL d   1       8.428 -13.937  11.257 -0.00 +0.06    -0.278    14.399
ATOM     22  P   UNL d   1       6.891 -13.784  11.656 -0.02 -0.12    +0.473    14.399
ATOM     23  O   UNL d   1       6.554 -13.568  13.093 -0.02 +0.06    -0.228    14.399
ATOM     24  O   UNL d   1       6.415 -12.623  10.677 -0.52 +0.11    -0.303    14.399
ATOM     25  H   UNL d   1       6.847 -12.766   9.797 +0.06 -0.07    +0.222    14.399
ATOM     26  O   UNL d   1       6.246 -15.081  10.970 -0.02 +0.04    -0.303    14.399
ATOM     27  H   UNL d   1       6.397 -15.043  10.004 +0.03 -0.03    +0.222    14.399
ATOM     28  O   UNL d   1      11.397 -13.483   6.638 -0.10 +0.06    -0.278    14.399
ATOM     29  P   UNL d   1      12.940 -13.364   6.260 -0.10 -0.19    +0.473    14.399
ATOM     30  O   UNL d   1      13.437 -11.984   6.025 -0.24 +0.12    -0.228    14.399
ATOM     31  O   UNL d   1      13.589 -14.172   7.479 -0.02 +0.07    -0.303    14.399
ATOM     32  H   UNL d   1      14.404 -13.701   7.769 +0.04 -0.06    +0.222    14.399
ATOM     33  O   UNL d   1      13.068 -14.390   5.049 -0.17 +0.15    -0.303    14.399
ATOM     34  H   UNL d   1      13.758 -14.063   4.422 -0.49 -0.32    +0.222    14.399
ATOM     35  O   UNL d   1       7.529 -15.000   8.690 -0.04 +0.05    -0.278    14.399
ATOM     36  P   UNL d   1       6.740 -13.947   7.788 -0.12 -0.12    +0.473    14.399
ATOM     37  O   UNL d   1       7.530 -12.757   7.345 -0.20 +0.09    -0.228    14.399
ATOM     38  O   UNL d   1       6.217 -14.865   6.596 -0.17 +0.09    -0.303    14.399
ATOM     39  H   UNL d   1       6.809 -14.754   5.822 -0.33 -0.11    +0.222    14.399
ATOM     40  O   UNL d   1       5.436 -13.666   8.655 -0.14 +0.04    -0.303    14.399
ATOM     41  H   UNL d   1       5.609 -13.772   9.617 +0.05 -0.03    +0.222    14.399
ATOM     42  O   UNL d   1       9.903 -15.869   7.242 -0.04 +0.03    -0.278    14.399
ATOM     43  P   UNL d   1       9.530 -16.169   5.720 -0.11 -0.02    +0.473    14.399
ATOM     44  O   UNL d   1       9.156 -17.567   5.368 -0.11 -0.00    -0.228    14.399
ATOM     45  O   UNL d   1       8.392 -15.097   5.422 -0.00 +0.06    -0.303    14.399
ATOM     46  H   UNL d   1       8.295 -14.463   6.161 -0.33 -0.08    +0.222    14.399
ATOM     47  O   UNL d   1      10.772 -15.560   4.911 -0.17 -0.01    -0.303    14.399
ATOM     48  H   UNL d   1      11.484 -15.326   5.541 +0.06 -0.01    +0.222    14.399
TER
ENDMDL
MODEL       60
USER    Run = 60
USER    Cluster Rank = 7
USER    Number of conformations in this cluster = 1
USER  
USER    RMSD from reference structure       = 18.999 A
USER  
USER    Estimated Free Energy of Binding    =   +1.00 kcal/mol  [=(1)+(2)+(3)-(4)]
USER    
USER    (1) Final Intermolecular Energy     =   -6.16 kcal/mol
USER        vdW + Hbond + desolv Energy     =   -5.36 kcal/mol
USER        Electrostatic Energy            =   -0.80 kcal/mol
USER    (2) Final Total Internal Energy     =  -12.08 kcal/mol
USER    (3) Torsional Free Energy           =   +7.16 kcal/mol
USER    (4) Unbound System's Energy  [=(2)] =  -12.08 kcal/mol
USER    
USER    
USER  
USER    DPF = D:/Protein_go_brrr/autodock/final/mut_D99N/IHP/dock.dpf
USER    NEWDPF move	IHP_ideal_opt.pdbqt
USER    NEWDPF about	0.035000 0.082000 -0.065000
USER    NEWDPF tran0	-9.674666 15.244569 12.509095
USER    NEWDPF axisangle0	0.830633 -0.541502 0.129711 -135.850365
USER    NEWDPF quaternion0	0.769742 -0.501807 0.120202 -0.375817
USER    NEWDPF dihe0	179.92 158.60 -171.62 -32.08 105.10 -180.00 45.95 -88.85 125.76 -19.38 99.00 171.13 -54.14 -180.00 45.00 -125.52 29.99 -126.30 -26.52 16.58 -6.46 9.98 167.66 -7.64 
USER  
USER                              x       y       z    vdW   Elec        q     RMS 
ATOM      1  C   UNL d   1      -8.475  14.027  12.262 -0.20 -0.05    +0.194    18.999
ATOM      2  C   UNL d   1      -8.293  15.308  11.446 -0.15 -0.06    +0.194    18.999
ATOM      3  C   UNL d   1      -9.619  15.798  10.860 -0.09 -0.14    +0.194    18.999
ATOM      4  C   UNL d   1     -10.726  15.929  11.902 -0.09 -0.13    +0.194    18.999
ATOM      5  C   UNL d   1     -10.867  14.718  12.815 -0.12 -0.09    +0.194    18.999
ATOM      6  C   UNL d   1      -9.535  14.190  13.352 -0.14 -0.05    +0.194    18.999
ATOM      7  O   UNL d   1      -7.236  13.733  12.913 -0.11 +0.06    -0.278    18.999
ATOM      8  P   UNL d   1      -6.865  12.203  13.185 -0.25 -0.12    +0.473    18.999
ATOM      9  O   UNL d   1      -7.902  11.220  12.771 -0.47 +0.06    -0.228    18.999
ATOM     10  O   UNL d   1      -5.473  12.003  12.430 -0.29 +0.08    -0.303    18.999
ATOM     11  H   UNL d   1      -5.038  12.868  12.313 -0.30 -0.09    +0.222    18.999
ATOM     12  O   UNL d   1      -6.427  12.150  14.711 -0.39 +0.09    -0.303    18.999
ATOM     13  H   UNL d   1      -7.047  11.632  15.272 -0.37 -0.12    +0.222    18.999
ATOM     14  O   UNL d   1      -7.764  16.332  12.298 -0.03 +0.06    -0.278    18.999
ATOM     15  P   UNL d   1      -6.800  17.409  11.608 +0.01 -0.07    +0.473    18.999
ATOM     16  O   UNL d   1      -5.440  17.575  12.209 -0.02 +0.03    -0.228    18.999
ATOM     17  O   UNL d   1      -6.750  16.961  10.080 -0.05 +0.04    -0.303    18.999
ATOM     18  H   UNL d   1      -7.432  17.423   9.555 +0.06 -0.03    +0.222    18.999
ATOM     19  O   UNL d   1      -7.679  18.732  11.523 -0.00 +0.04    -0.303    18.999
ATOM     20  H   UNL d   1      -8.158  18.793  10.677 +0.02 -0.03    +0.222    18.999
ATOM     21  O   UNL d   1      -9.790  12.892  13.885 -0.19 +0.07    -0.278    18.999
ATOM     22  P   UNL d   1      -9.764  12.664  15.463 -0.12 -0.12    +0.473    18.999
ATOM     23  O   UNL d   1     -10.920  13.158  16.266 -0.06 +0.04    -0.228    18.999
ATOM     24  O   UNL d   1      -9.504  11.097  15.562 -0.03 +0.12    -0.303    18.999
ATOM     25  H   UNL d   1      -8.856  10.847  14.854 -0.39 -0.13    +0.222    18.999
ATOM     26  O   UNL d   1      -8.329  13.263  15.854 -0.09 +0.07    -0.303    18.999
ATOM     27  H   UNL d   1      -7.926  13.675  15.063 +0.09 -0.05    +0.222    18.999
ATOM     28  O   UNL d   1      -9.408  17.115  10.366 -0.09 +0.14    -0.278    18.999
ATOM     29  P   UNL d   1      -9.654  17.446   8.828 -0.07 -0.27    +0.473    18.999
ATOM     30  O   UNL d   1      -8.835  18.553   8.271 -0.05 +0.04    -0.228    18.999
ATOM     31  O   UNL d   1      -9.441  15.993   8.191 -0.15 +0.26    -0.303    18.999
ATOM     32  H   UNL d   1     -10.323  15.575   8.060 -0.52 -0.52    +0.222    18.999
ATOM     33  O   UNL d   1     -11.236  17.624   8.774 -0.05 +0.30    -0.303    18.999
ATOM     34  H   UNL d   1     -11.647  17.054   9.469 -0.27 -0.36    +0.222    18.999
ATOM     35  O   UNL d   1     -11.625  15.164  13.937 -0.06 +0.09    -0.278    18.999
ATOM     36  P   UNL d   1     -11.063  16.322  14.879 +0.00 -0.09    +0.473    18.999
ATOM     37  O   UNL d   1     -11.119  17.703  14.306 -0.01 +0.04    -0.228    18.999
ATOM     38  O   UNL d   1     -11.936  16.124  16.196 -0.00 +0.04    -0.303    18.999
ATOM     39  H   UNL d   1     -11.833  15.201  16.514 +0.02 -0.03    +0.222    18.999
ATOM     40  O   UNL d   1      -9.629  15.766  15.283 -0.00 +0.05    -0.303    18.999
ATOM     41  H   UNL d   1      -9.693  14.913  15.769 +0.03 -0.04    +0.222    18.999
ATOM     42  O   UNL d   1     -11.958  16.061  11.185 +0.03 +0.36    -0.278    18.999
ATOM     43  P   UNL d   1     -12.820  17.390  11.369 -0.06 -0.31    +0.473    18.999
ATOM     44  O   UNL d   1     -13.681  17.487  12.581 -0.03 +0.09    -0.228    18.999
ATOM     45  O   UNL d   1     -11.722  18.537  11.258 -0.02 +0.12    -0.303    18.999
ATOM     46  H   UNL d   1     -10.953  18.245  10.729 +0.02 -0.10    +0.222    18.999
ATOM     47  O   UNL d   1     -13.582  17.531   9.966 -0.08 +0.25    -0.303    18.999
ATOM     48  H   UNL d   1     -13.210  16.884   9.331 -0.23 -0.34    +0.222    18.999
TER
ENDMDL
MODEL       94
USER    Run = 94
USER    Cluster Rank = 8
USER    Number of conformations in this cluster = 2
USER  
USER    RMSD from reference structure       = 13.709 A
USER  
USER    Estimated Free Energy of Binding    =   +1.17 kcal/mol  [=(1)+(2)+(3)-(4)]
USER    
USER    (1) Final Intermolecular Energy     =   -5.99 kcal/mol
USER        vdW + Hbond + desolv Energy     =   -5.82 kcal/mol
USER        Electrostatic Energy            =   -0.17 kcal/mol
USER    (2) Final Total Internal Energy     =  -13.49 kcal/mol
USER    (3) Torsional Free Energy           =   +7.16 kcal/mol
USER    (4) Unbound System's Energy  [=(2)] =  -13.49 kcal/mol
USER    
USER    
USER  
USER    DPF = D:/Protein_go_brrr/autodock/final/mut_D99N/IHP/dock.dpf
USER    NEWDPF move	IHP_ideal_opt.pdbqt
USER    NEWDPF about	0.035000 0.082000 -0.065000
USER    NEWDPF tran0	6.178430 -0.446407 13.652849
USER    NEWDPF axisangle0	-0.248942 0.192862 -0.949122 135.175510
USER    NEWDPF quaternion0	-0.230138 0.178294 -0.877429 0.381268
USER    NEWDPF dihe0	117.08 96.25 114.15 -176.44 16.13 -168.91 56.25 -94.19 103.62 -60.63 -4.55 95.31 180.00 -117.94 -36.40 106.88 163.93 -76.33 13.30 -19.06 171.00 -17.98 23.39 -142.76 
USER  
USER                              x       y       z    vdW   Elec        q     RMS 
ATOM      1  C   UNL d   1       6.301   0.476  15.108 -0.12 -0.01    +0.194    13.709
ATOM      2  C   UNL d   1       7.559   0.443  14.238 -0.10 -0.02    +0.194    13.709
ATOM      3  C   UNL d   1       7.840  -0.962  13.702 -0.12 -0.06    +0.194    13.709
ATOM      4  C   UNL d   1       6.638  -1.590  13.002 -0.18 -0.10    +0.194    13.709
ATOM      5  C   UNL d   1       5.336  -1.478  13.784 -0.17 -0.03    +0.194    13.709
ATOM      6  C   UNL d   1       5.085  -0.088  14.373 +0.05 +0.00    +0.194    13.709
ATOM      7  O   UNL d   1       6.013   1.840  15.424 -0.08 +0.01    -0.278    13.709
ATOM      8  P   UNL d   1       6.241   2.336  16.925 -0.09 -0.11    +0.473    13.709
ATOM      9  O   UNL d   1       5.081   3.034  17.543 -0.29 +0.09    -0.228    13.709
ATOM     10  O   UNL d   1       6.668   1.014  17.709 -0.03 +0.05    -0.303    13.709
ATOM     11  H   UNL d   1       6.124   0.264  17.405 +0.05 -0.01    +0.222    13.709
ATOM     12  O   UNL d   1       7.603   3.155  16.888 -0.07 +0.11    -0.303    13.709
ATOM     13  H   UNL d   1       7.622   3.839  16.181 +0.07 -0.07    +0.222    13.709
ATOM     14  O   UNL d   1       7.382   1.329  13.126 -0.15 -0.00    -0.278    13.709
ATOM     15  P   UNL d   1       8.309   2.634  13.096 -0.13 +0.07    +0.473    13.709
ATOM     16  O   UNL d   1       8.141   3.605  14.222 -0.11 +0.00    -0.228    13.709
ATOM     17  O   UNL d   1       9.790   2.055  12.996 -0.09 -0.07    -0.303    13.709
ATOM     18  H   UNL d   1       9.785   1.127  12.691 +0.06 +0.04    +0.222    13.709
ATOM     19  O   UNL d   1       8.103   3.234  11.637 -0.21 -0.16    -0.303    13.709
ATOM     20  H   UNL d   1       7.799   4.160  11.667 +0.09 +0.09    +0.222    13.709
ATOM     21  O   UNL d   1       4.043  -0.230  15.336 -0.23 -0.04    -0.278    13.709
ATOM     22  P   UNL d   1       4.318  -1.032  16.687 -0.12 +0.12    +0.473    13.709
ATOM     23  O   UNL d   1       5.626  -1.734  16.837 -0.03 -0.01    -0.228    13.709
ATOM     24  O   UNL d   1       4.025   0.077  17.790 -0.16 -0.06    -0.303    13.709
ATOM     25  H   UNL d   1       4.531   0.894  17.547 +0.08 +0.00    +0.222    13.709
ATOM     26  O   UNL d   1       3.010  -1.954  16.790 -0.37 -0.33    -0.303    13.709
ATOM     27  H   UNL d   1       2.568  -1.984  15.917 +0.05 +0.26    +0.222    13.709
ATOM     28  O   UNL d   1       8.842  -0.846  12.700 -0.20 +0.13    -0.278    13.709
ATOM     29  P   UNL d   1      10.381  -1.012  13.077 -0.09 -0.09    +0.473    13.709
ATOM     30  O   UNL d   1      10.863  -2.412  13.196 -0.59 +0.04    -0.228    13.709
ATOM     31  O   UNL d   1      11.047  -0.109  11.936 -0.16 -0.01    -0.303    13.709
ATOM     32  H   UNL d   1      11.384   0.720  12.348 +0.04 +0.05    +0.222    13.709
ATOM     33  O   UNL d   1      10.508  -0.094  14.371 -0.02 +0.02    -0.303    13.709
ATOM     34  H   UNL d   1       9.913   0.689  14.270 +0.04 -0.01    +0.222    13.709
ATOM     35  O   UNL d   1       4.295  -1.728  12.842 -0.24 +0.04    -0.278    13.709
ATOM     36  P   UNL d   1       2.889  -2.304  13.329 -0.23 +0.06    +0.473    13.709
ATOM     37  O   UNL d   1       2.145  -3.125  12.325 -0.41 -0.00    -0.228    13.709
ATOM     38  O   UNL d   1       3.301  -3.097  14.647 -0.11 -0.09    -0.303    13.709
ATOM     39  H   UNL d   1       4.045  -2.630  15.084 +0.08 +0.04    +0.222    13.709
ATOM     40  O   UNL d   1       2.161  -1.001  13.879 -0.29 -0.07    -0.303    13.709
ATOM     41  H   UNL d   1       2.181  -0.959  14.861 -0.37 +0.09    +0.222    13.709
ATOM     42  O   UNL d   1       6.924  -2.986  12.858 -0.17 +0.22    -0.278    13.709
ATOM     43  P   UNL d   1       6.166  -4.029  13.798 -0.07 -0.27    +0.473    13.709
ATOM     44  O   UNL d   1       5.774  -3.568  15.159 -0.04 +0.05    -0.228    13.709
ATOM     45  O   UNL d   1       4.944  -4.493  12.891 -0.17 +0.17    -0.303    13.709
ATOM     46  H   UNL d   1       4.234  -3.820  12.875 +0.12 -0.07    +0.222    13.709
ATOM     47  O   UNL d   1       7.115  -5.320  13.752 -0.03 +0.37    -0.303    13.709
ATOM     48  H   UNL d   1       6.882  -5.864  12.971 -0.51 -0.58    +0.222    13.709
TER
ENDMDL
MODEL       63
USER    Run = 63
USER    Cluster Rank = 9
USER    Number of conformations in this cluster = 2
USER  
USER    RMSD from reference structure       = 10.932 A
USER  
USER    Estimated Free Energy of Binding    =   +1.34 kcal/mol  [=(1)+(2)+(3)-(4)]
USER    
USER    (1) Final Intermolecular Energy     =   -5.82 kcal/mol
USER        vdW + Hbond + desolv Energy     =   -5.35 kcal/mol
USER        Electrostatic Energy            =   -0.47 kcal/mol
USER    (2) Final Total Internal Energy     =  -14.65 kcal/mol
USER    (3) Torsional Free Energy           =   +7.16 kcal/mol
USER    (4) Unbound System's Energy  [=(2)] =  -14.65 kcal/mol
USER    
USER    
USER  
USER    DPF = D:/Protein_go_brrr/autodock/final/mut_D99N/IHP/dock.dpf
USER    NEWDPF move	IHP_ideal_opt.pdbqt
USER    NEWDPF about	0.035000 0.082000 -0.065000
USER    NEWDPF tran0	-12.865810 -5.353063 -3.135708
USER    NEWDPF axisangle0	0.565584 0.751722 0.339160 145.120047
USER    NEWDPF quaternion0	0.539585 0.717166 0.323569 0.299707
USER    NEWDPF dihe0	-148.69 34.72 179.75 14.18 117.45 119.99 30.73 -107.93 -42.12 106.44 -56.15 176.06 40.67 -178.90 72.54 -97.90 -22.07 -143.60 -8.03 16.68 -24.79 41.43 161.66 -36.11 
USER  
USER                              x       y       z    vdW   Elec        q     RMS 
ATOM      1  C   UNL d   1     -14.087  -4.188  -2.768 -0.17 +0.02    +0.194    10.932
ATOM      2  C   UNL d   1     -14.539  -5.370  -3.628 -0.10 +0.01    +0.194    10.932
ATOM      3  C   UNL d   1     -13.513  -5.706  -4.713 -0.15 -0.01    +0.194    10.932
ATOM      4  C   UNL d   1     -12.100  -5.895  -4.167 -0.14 -0.02    +0.194    10.932
ATOM      5  C   UNL d   1     -11.651  -4.797  -3.212 -0.21 -0.00    +0.194    10.932
ATOM      6  C   UNL d   1     -12.701  -4.418  -2.165 -0.15 +0.02    +0.194    10.932
ATOM      7  O   UNL d   1     -15.006  -4.051  -1.681 -0.06 -0.05    -0.278    10.932
ATOM      8  P   UNL d   1     -15.616  -2.605  -1.382 -0.10 +0.11    +0.473    10.932
ATOM      9  O   UNL d   1     -16.911  -2.314  -2.056 -0.11 -0.03    -0.228    10.932
ATOM     10  O   UNL d   1     -15.711  -2.547   0.210 -0.08 -0.14    -0.303    10.932
ATOM     11  H   UNL d   1     -14.841  -2.759   0.597 +0.04 +0.17    +0.222    10.932
ATOM     12  O   UNL d   1     -14.434  -1.587  -1.682 -0.20 -0.07    -0.303    10.932
ATOM     13  H   UNL d   1     -13.567  -2.033  -1.817 +0.10 +0.06    +0.222    10.932
ATOM     14  O   UNL d   1     -14.709  -6.520  -2.789 -0.02 -0.00    -0.278    10.932
ATOM     15  P   UNL d   1     -15.844  -7.562  -3.225 +0.00 -0.01    +0.473    10.932
ATOM     16  O   UNL d   1     -16.904  -7.862  -2.213 -0.00 -0.00    -0.228    10.932
ATOM     17  O   UNL d   1     -16.433  -6.952  -4.574 -0.03 +0.01    -0.303    10.932
ATOM     18  H   UNL d   1     -15.890  -7.211  -5.343 +0.03 -0.01    +0.222    10.932
ATOM     19  O   UNL d   1     -15.038  -8.822  -3.768 -0.00 +0.02    -0.303    10.932
ATOM     20  H   UNL d   1     -14.313  -8.556  -4.364 +0.02 -0.02    +0.222    10.932
ATOM     21  O   UNL d   1     -12.284  -3.181  -1.592 -0.08 -0.07    -0.278    10.932
ATOM     22  P   UNL d   1     -12.156  -3.047  -0.007 -0.06 +0.29    +0.473    10.932
ATOM     23  O   UNL d   1     -10.792  -3.094   0.596 -0.14 -0.15    -0.228    10.932
ATOM     24  O   UNL d   1     -12.963  -1.704   0.272 -0.18 -0.23    -0.303    10.932
ATOM     25  H   UNL d   1     -13.848  -1.780  -0.167 +0.07 +0.12    +0.222    10.932
ATOM     26  O   UNL d   1     -13.187  -4.164   0.499 -0.11 -0.23    -0.303    10.932
ATOM     27  H   UNL d   1     -14.061  -4.005   0.087 +0.05 +0.12    +0.222    10.932
ATOM     28  O   UNL d   1     -13.875  -6.963  -5.269 -0.05 +0.03    -0.278    10.932
ATOM     29  P   UNL d   1     -13.494  -7.316  -6.775 -0.06 -0.07    +0.473    10.932
ATOM     30  O   UNL d   1     -14.631  -7.695  -7.652 -0.05 +0.02    -0.228    10.932
ATOM     31  O   UNL d   1     -12.679  -5.997  -7.173 -0.15 +0.08    -0.303    10.932
ATOM     32  H   UNL d   1     -11.754  -6.089  -6.846 -0.43 -0.12    +0.222    10.932
ATOM     33  O   UNL d   1     -12.341  -8.397  -6.584 -0.06 +0.07    -0.303    10.932
ATOM     34  H   UNL d   1     -11.682  -8.052  -5.932 +0.08 -0.07    +0.222    10.932
ATOM     35  O   UNL d   1     -10.530  -5.329  -2.509 -0.16 +0.03    -0.278    10.932
ATOM     36  P   UNL d   1     -10.722  -6.535  -1.483 -0.08 -0.11    +0.473    10.932
ATOM     37  O   UNL d   1     -11.946  -7.369  -1.691 -0.05 +0.05    -0.228    10.932
ATOM     38  O   UNL d   1      -9.352  -7.329  -1.652 -0.15 +0.27    -0.303    10.932
ATOM     39  H   UNL d   1      -9.534  -8.197  -2.072 -0.46 -0.43    +0.222    10.932
ATOM     40  O   UNL d   1     -10.573  -5.810  -0.075 -0.13 -0.02    -0.303    10.932
ATOM     41  H   UNL d   1     -11.297  -5.163   0.080 +0.07 +0.06    +0.222    10.932
ATOM     42  O   UNL d   1     -11.214  -5.865  -5.291 -0.19 +0.07    -0.278    10.932
ATOM     43  P   UNL d   1      -9.892  -6.758  -5.255 -0.21 -0.20    +0.473    10.932
ATOM     44  O   UNL d   1      -8.622  -6.088  -4.860 -0.47 +0.08    -0.228    10.932
ATOM     45  O   UNL d   1     -10.313  -7.966  -4.309 -0.13 +0.25    -0.303    10.932
ATOM     46  H   UNL d   1      -9.656  -8.109  -3.598 -0.43 -0.39    +0.222    10.932
ATOM     47  O   UNL d   1      -9.885  -7.459  -6.696 -0.01 +0.11    -0.303    10.932
ATOM     48  H   UNL d   1     -10.709  -7.227  -7.172 -0.45 -0.10    +0.222    10.932
TER
ENDMDL
MODEL       77
USER    Run = 77
USER    Cluster Rank = 10
USER    Number of conformations in this cluster = 1
USER  
USER    RMSD from reference structure       = 14.365 A
USER  
USER    Estimated Free Energy of Binding    =   +1.43 kcal/mol  [=(1)+(2)+(3)-(4)]
USER    
USER    (1) Final Intermolecular Energy     =   -5.73 kcal/mol
USER        vdW + Hbond + desolv Energy     =   -5.66 kcal/mol
USER        Electrostatic Energy            =   -0.08 kcal/mol
USER    (2) Final Total Internal Energy     =  -14.12 kcal/mol
USER    (3) Torsional Free Energy           =   +7.16 kcal/mol
USER    (4) Unbound System's Energy  [=(2)] =  -14.12 kcal/mol
USER    
USER    
USER  
USER    DPF = D:/Protein_go_brrr/autodock/final/mut_D99N/IHP/dock.dpf
USER    NEWDPF move	IHP_ideal_opt.pdbqt
USER    NEWDPF about	0.035000 0.082000 -0.065000
USER    NEWDPF tran0	3.452655 -14.283896 7.541177
USER    NEWDPF axisangle0	0.290518 -0.739376 0.607390 -130.556792
USER    NEWDPF quaternion0	0.263892 -0.671612 0.551723 -0.418210
USER    NEWDPF dihe0	156.69 69.40 179.92 -20.89 3.65 -115.01 -117.30 -26.20 78.28 94.00 15.37 -147.67 134.28 178.15 -52.36 -146.02 78.65 -67.32 48.16 16.17 -169.73 5.87 14.12 -165.85 
USER  
USER                              x       y       z    vdW   Elec        q     RMS 
ATOM      1  C   UNL d   1       3.323 -15.134   9.039 -0.11 -0.02    +0.194    14.365
ATOM      2  C   UNL d   1       4.716 -15.116   8.408 -0.13 -0.03    +0.194    14.365
ATOM      3  C   UNL d   1       4.659 -15.363   6.899 -0.20 -0.04    +0.194    14.365
ATOM      4  C   UNL d   1       3.685 -14.437   6.175 -0.21 -0.05    +0.194    14.365
ATOM      5  C   UNL d   1       2.316 -14.336   6.836 -0.23 -0.03    +0.194    14.365
ATOM      6  C   UNL d   1       2.374 -14.151   8.354 -0.13 -0.02    +0.194    14.365
ATOM      7  O   UNL d   1       3.446 -14.728  10.404 -0.08 +0.04    -0.278    14.365
ATOM      8  P   UNL d   1       4.069 -15.761  11.451 -0.01 -0.05    +0.473    14.365
ATOM      9  O   UNL d   1       4.036 -15.317  12.871 -0.01 +0.03    -0.228    14.365
ATOM     10  O   UNL d   1       3.254 -17.109  11.196 -0.00 +0.02    -0.303    14.365
ATOM     11  H   UNL d   1       2.588 -16.961  10.499 +0.01 -0.02    +0.222    14.365
ATOM     12  O   UNL d   1       5.502 -16.124  10.870 -0.00 +0.03    -0.303    14.365
ATOM     13  H   UNL d   1       5.866 -15.428  10.278 +0.03 -0.03    +0.222    14.365
ATOM     14  O   UNL d   1       5.316 -13.834   8.638 -0.16 +0.03    -0.278    14.365
ATOM     15  P   UNL d   1       6.908 -13.810   8.812 -0.09 -0.10    +0.473    14.365
ATOM     16  O   UNL d   1       7.439 -13.150  10.046 -0.08 +0.07    -0.228    14.365
ATOM     17  O   UNL d   1       7.334 -15.340   8.698 -0.03 +0.05    -0.303    14.365
ATOM     18  H   UNL d   1       7.435 -15.608   7.764 +0.05 -0.04    +0.222    14.365
ATOM     19  O   UNL d   1       7.448 -13.224   7.435 -0.14 +0.11    -0.303    14.365
ATOM     20  H   UNL d   1       7.481 -13.908   6.741 -0.44 -0.11    +0.222    14.365
ATOM     21  O   UNL d   1       1.064 -14.417   8.852 -0.12 +0.05    -0.278    14.365
ATOM     22  P   UNL d   1       0.651 -15.910   9.232 +0.01 -0.05    +0.473    14.365
ATOM     23  O   UNL d   1       1.413 -17.032   8.613 -0.01 +0.02    -0.228    14.365
ATOM     24  O   UNL d   1       0.701 -15.867  10.822 -0.00 +0.03    -0.303    14.365
ATOM     25  H   UNL d   1       1.632 -15.667  11.096 +0.03 -0.02    +0.222    14.365
ATOM     26  O   UNL d   1      -0.927 -15.893   8.950 +0.00 +0.03    -0.303    14.365
ATOM     27  H   UNL d   1      -1.081 -15.849   7.984 +0.03 -0.02    +0.222    14.365
ATOM     28  O   UNL d   1       5.940 -15.055   6.366 -0.20 +0.08    -0.278    14.365
ATOM     29  P   UNL d   1       6.820 -16.191   5.679 -0.10 -0.08    +0.473    14.365
ATOM     30  O   UNL d   1       8.209 -15.800   5.326 -0.19 +0.02    -0.228    14.365
ATOM     31  O   UNL d   1       6.647 -17.365   6.753 -0.04 +0.03    -0.303    14.365
ATOM     32  H   UNL d   1       7.077 -17.086   7.595 +0.03 -0.02    +0.222    14.365
ATOM     33  O   UNL d   1       5.880 -16.666   4.485 -0.18 +0.09    -0.303    14.365
ATOM     34  H   UNL d   1       5.359 -15.892   4.159 -0.39 -0.10    +0.222    14.365
ATOM     35  O   UNL d   1       1.709 -13.166   6.293 -0.49 +0.03    -0.278    14.365
ATOM     36  P   UNL d   1       0.136 -13.124   6.028 -0.12 -0.04    +0.473    14.365
ATOM     37  O   UNL d   1      -0.604 -12.020   6.713 -0.52 +0.05    -0.228    14.365
ATOM     38  O   UNL d   1       0.075 -13.065   4.438 -0.34 +0.04    -0.303    14.365
ATOM     39  H   UNL d   1       0.978 -13.202   4.076 -0.16 -0.07    +0.222    14.365
ATOM     40  O   UNL d   1      -0.306 -14.612   6.373 -0.06 +0.04    -0.303    14.365
ATOM     41  H   UNL d   1       0.011 -14.890   7.261 +0.06 -0.03    +0.222    14.365
ATOM     42  O   UNL d   1       3.482 -14.988   4.870 -0.28 +0.10    -0.278    14.365
ATOM     43  P   UNL d   1       2.413 -16.157   4.683 -0.09 -0.10    +0.473    14.365
ATOM     44  O   UNL d   1       2.043 -16.948   5.890 -0.03 +0.03    -0.228    14.365
ATOM     45  O   UNL d   1       1.189 -15.405   3.998 -0.08 +0.06    -0.303    14.365
ATOM     46  H   UNL d   1       0.872 -14.662   4.548 +0.07 -0.05    +0.222    14.365
ATOM     47  O   UNL d   1       3.004 -17.003   3.457 -0.10 +0.09    -0.303    14.365
ATOM     48  H   UNL d   1       3.983 -16.950   3.471 -0.43 -0.13    +0.222    14.365
TER
ENDMDL
MODEL       85
USER    Run = 85
USER    Cluster Rank = 11
USER    Number of conformations in this cluster = 1
USER  
USER    RMSD from reference structure       = 10.451 A
USER  
USER    Estimated Free Energy of Binding    =   +1.46 kcal/mol  [=(1)+(2)+(3)-(4)]
USER    
USER    (1) Final Intermolecular Energy     =   -5.70 kcal/mol
USER        vdW + Hbond + desolv Energy     =   -5.42 kcal/mol
USER        Electrostatic Energy            =   -0.28 kcal/mol
USER    (2) Final Total Internal Energy     =  -12.90 kcal/mol
USER    (3) Torsional Free Energy           =   +7.16 kcal/mol
USER    (4) Unbound System's Energy  [=(2)] =  -12.90 kcal/mol
USER    
USER    
USER  
USER    DPF = D:/Protein_go_brrr/autodock/final/mut_D99N/IHP/dock.dpf
USER    NEWDPF move	IHP_ideal_opt.pdbqt
USER    NEWDPF about	0.035000 0.082000 -0.065000
USER    NEWDPF tran0	-12.408643 -6.361222 -2.151869
USER    NEWDPF axisangle0	0.726711 -0.686846 0.011592 -111.182178
USER    NEWDPF quaternion0	0.599555 -0.566666 0.009564 -0.565095
USER    NEWDPF dihe0	-83.24 -62.48 115.13 147.38 -56.77 -133.88 -113.90 15.95 14.23 58.95 109.87 -163.00 147.91 80.20 11.48 -175.23 -6.33 153.65 -140.77 17.92 107.60 24.27 153.63 -16.99 
USER  
USER                              x       y       z    vdW   Elec        q     RMS 
ATOM      1  C   UNL d   1     -11.845  -7.993  -2.213 -0.06 -0.07    +0.194    10.451
ATOM      2  C   UNL d   1     -11.504  -7.130  -3.429 -0.10 -0.07    +0.194    10.451
ATOM      3  C   UNL d   1     -12.694  -6.273  -3.867 -0.08 -0.02    +0.194    10.451
ATOM      4  C   UNL d   1     -13.296  -5.453  -2.728 -0.08 +0.01    +0.194    10.451
ATOM      5  C   UNL d   1     -13.546  -6.250  -1.454 -0.03 +0.01    +0.194    10.451
ATOM      6  C   UNL d   1     -12.379  -7.155  -1.051 -0.04 -0.01    +0.194    10.451
ATOM      7  O   UNL d   1     -10.644  -8.626  -1.765 -0.06 +0.26    -0.278    10.451
ATOM      8  P   UNL d   1      -9.832  -7.952  -0.566 -0.09 -0.29    +0.473    10.451
ATOM      9  O   UNL d   1      -8.410  -8.373  -0.452 -0.24 +0.23    -0.228    10.451
ATOM     10  O   UNL d   1     -10.006  -6.386  -0.814 -0.15 +0.06    -0.303    10.451
ATOM     11  H   UNL d   1     -10.462  -5.982  -0.052 +0.09 +0.01    +0.222    10.451
ATOM     12  O   UNL d   1     -10.731  -8.186   0.724 -0.05 +0.05    -0.303    10.451
ATOM     13  H   UNL d   1     -11.167  -7.364   1.044 +0.06 +0.01    +0.222    10.451
ATOM     14  O   UNL d   1     -10.414  -6.262  -3.095 -0.15 +0.09    -0.278    10.451
ATOM     15  P   UNL d   1      -9.431  -5.855  -4.292 -0.28 -0.15    +0.473    10.451
ATOM     16  O   UNL d   1      -9.033  -4.415  -4.374 -0.34 +0.02    -0.228    10.451
ATOM     17  O   UNL d   1      -8.184  -6.831  -4.118 -0.33 +0.21    -0.303    10.451
ATOM     18  H   UNL d   1      -8.418  -7.607  -3.573 -0.43 -0.38    +0.222    10.451
ATOM     19  O   UNL d   1     -10.124  -6.450  -5.594 -0.22 +0.12    -0.303    10.451
ATOM     20  H   UNL d   1     -10.764  -5.824  -5.980 -0.22 -0.10    +0.222    10.451
ATOM     21  O   UNL d   1     -12.882  -8.065  -0.075 -0.01 +0.01    -0.278    10.451
ATOM     22  P   UNL d   1     -14.437  -8.066   0.280 +0.01 +0.03    +0.473    10.451
ATOM     23  O   UNL d   1     -15.415  -7.937  -0.838 -0.00 -0.01    -0.228    10.451
ATOM     24  O   UNL d   1     -14.574  -9.400   1.137 +0.00 -0.01    -0.303    10.451
ATOM     25  H   UNL d   1     -15.251  -9.978   0.701 +0.00 +0.00    +0.222    10.451
ATOM     26  O   UNL d   1     -14.513  -6.935   1.414 -0.01 -0.08    -0.303    10.451
ATOM     27  H   UNL d   1     -14.084  -6.119   1.084 +0.02 +0.09    +0.222    10.451
ATOM     28  O   UNL d   1     -12.212  -5.319  -4.805 -0.17 +0.02    -0.278    10.451
ATOM     29  P   UNL d   1     -13.016  -5.038  -6.151 -0.26 -0.02    +0.473    10.451
ATOM     30  O   UNL d   1     -12.732  -3.735  -6.806 -0.82 -0.06    -0.228    10.451
ATOM     31  O   UNL d   1     -12.651  -6.360  -6.976 -0.15 +0.07    -0.303    10.451
ATOM     32  H   UNL d   1     -11.677  -6.380  -7.120 -0.45 -0.13    +0.222    10.451
ATOM     33  O   UNL d   1     -14.520  -5.306  -5.704 -0.09 +0.00    -0.303    10.451
ATOM     34  H   UNL d   1     -14.834  -4.544  -5.158 +0.07 +0.02    +0.222    10.451
ATOM     35  O   UNL d   1     -13.706  -5.284  -0.418 -0.04 -0.08    -0.278    10.451
ATOM     36  P   UNL d   1     -12.435  -4.525   0.178 -0.03 +0.25    +0.473    10.451
ATOM     37  O   UNL d   1     -11.378  -4.160  -0.815 -0.18 -0.06    -0.228    10.451
ATOM     38  O   UNL d   1     -13.111  -3.279   0.903 -0.16 -0.38    -0.303    10.451
ATOM     39  H   UNL d   1     -13.657  -2.787   0.254 +0.06 +0.18    +0.222    10.451
ATOM     40  O   UNL d   1     -12.002  -5.477   1.376 -0.00 -0.20    -0.303    10.451
ATOM     41  H   UNL d   1     -12.400  -6.372   1.292 +0.04 +0.08    +0.222    10.451
ATOM     42  O   UNL d   1     -14.567  -4.980  -3.185 -0.08 -0.02    -0.278    10.451
ATOM     43  P   UNL d   1     -14.896  -3.423  -3.075 -0.13 +0.06    +0.473    10.451
ATOM     44  O   UNL d   1     -16.328  -3.018  -3.129 -0.05 -0.02    -0.228    10.451
ATOM     45  O   UNL d   1     -14.151  -3.004  -1.732 -0.13 -0.07    -0.303    10.451
ATOM     46  H   UNL d   1     -13.303  -3.480  -1.630 +0.08 +0.05    +0.222    10.451
ATOM     47  O   UNL d   1     -13.949  -2.769  -4.190 -0.22 -0.05    -0.303    10.451
ATOM     48  H   UNL d   1     -13.632  -3.470  -4.796 +0.09 +0.04    +0.222    10.451
TER
ENDMDL
MODEL       72
USER    Run = 72
USER    Cluster Rank = 12
USER    Number of conformations in this cluster = 1
USER  
USER    RMSD from reference structure       = 17.147 A
USER  
USER    Estimated Free Energy of Binding    =   +1.47 kcal/mol  [=(1)+(2)+(3)-(4)]
USER    
USER    (1) Final Intermolecular Energy     =   -5.69 kcal/mol
USER        vdW + Hbond + desolv Energy     =   -5.17 kcal/mol
USER        Electrostatic Energy            =   -0.53 kcal/mol
USER    (2) Final Total Internal Energy     =  -13.86 kcal/mol
USER    (3) Torsional Free Energy           =   +7.16 kcal/mol
USER    (4) Unbound System's Energy  [=(2)] =  -13.86 kcal/mol
USER    
USER    
USER  
USER    DPF = D:/Protein_go_brrr/autodock/final/mut_D99N/IHP/dock.dpf
USER    NEWDPF move	IHP_ideal_opt.pdbqt
USER    NEWDPF about	0.035000 0.082000 -0.065000
USER    NEWDPF tran0	-15.794187 12.232349 6.132758
USER    NEWDPF axisangle0	0.463625 0.473313 -0.749017 178.802425
USER    NEWDPF quaternion0	0.463600 0.473287 -0.748976 0.010451
USER    NEWDPF dihe0	-112.16 14.47 70.80 88.54 -23.79 -160.92 -70.07 -52.16 -179.91 9.05 90.50 -117.66 -137.55 139.11 -6.58 -3.88 44.87 107.59 28.25 -9.53 -0.52 5.16 -18.55 -2.41 
USER  
USER                              x       y       z    vdW   Elec        q     RMS 
ATOM      1  C   UNL d   1     -17.441  12.739   6.010 -0.00 -0.04    +0.194    17.147
ATOM      2  C   UNL d   1     -16.810  12.873   7.397 -0.03 -0.07    +0.194    17.147
ATOM      3  C   UNL d   1     -15.975  11.644   7.761 -0.06 -0.08    +0.194    17.147
ATOM      4  C   UNL d   1     -14.948  11.276   6.693 -0.09 -0.07    +0.194    17.147
ATOM      5  C   UNL d   1     -15.510  11.243   5.277 -0.04 -0.04    +0.194    17.147
ATOM      6  C   UNL d   1     -16.396  12.443   4.934 -0.02 -0.04    +0.194    17.147
ATOM      7  O   UNL d   1     -18.055  13.986   5.676 +0.00 +0.04    -0.278    17.147
ATOM      8  P   UNL d   1     -19.609  14.177   5.993 +0.00 -0.04    +0.473    17.147
ATOM      9  O   UNL d   1     -20.533  13.686   4.935 +0.00 +0.01    -0.228    17.147
ATOM     10  O   UNL d   1     -19.811  13.441   7.394 +0.00 +0.03    -0.303    17.147
ATOM     11  H   UNL d   1     -19.666  14.076   8.120 +0.00 -0.03    +0.222    17.147
ATOM     12  O   UNL d   1     -19.764  15.706   6.395 +0.00 +0.03    -0.303    17.147
ATOM     13  H   UNL d   1     -18.961  16.074   6.828 +0.00 -0.03    +0.222    17.147
ATOM     14  O   UNL d   1     -15.958  14.025   7.412 -0.06 +0.19    -0.278    17.147
ATOM     15  P   UNL d   1     -16.291  15.147   8.505 -0.04 -0.33    +0.473    17.147
ATOM     16  O   UNL d   1     -15.640  16.482   8.318 -0.06 +0.15    -0.228    17.147
ATOM     17  O   UNL d   1     -17.882  15.231   8.502 -0.01 +0.09    -0.303    17.147
ATOM     18  H   UNL d   1     -18.248  14.934   7.647 +0.01 -0.05    +0.222    17.147
ATOM     19  O   UNL d   1     -16.011  14.437   9.901 -0.01 +0.33    -0.303    17.147
ATOM     20  H   UNL d   1     -15.327  13.747   9.824 -0.52 -0.46    +0.222    17.147
ATOM     21  O   UNL d   1     -17.104  12.105   3.744 -0.02 +0.03    -0.278    17.147
ATOM     22  P   UNL d   1     -16.640  12.716   2.345 -0.07 -0.06    +0.473    17.147
ATOM     23  O   UNL d   1     -15.225  13.168   2.208 -0.11 +0.03    -0.228    17.147
ATOM     24  O   UNL d   1     -17.076  11.572   1.329 -0.15 +0.08    -0.303    17.147
ATOM     25  H   UNL d   1     -16.319  10.939   1.233 -0.46 -0.11    +0.222    17.147
ATOM     26  O   UNL d   1     -17.762  13.832   2.089 -0.03 +0.02    -0.303    17.147
ATOM     27  H   UNL d   1     -18.139  14.112   2.948 +0.02 -0.02    +0.222    17.147
ATOM     28  O   UNL d   1     -15.216  11.969   8.918 -0.09 +0.27    -0.278    17.147
ATOM     29  P   UNL d   1     -15.464  11.195  10.288 -0.12 -0.23    +0.473    17.147
ATOM     30  O   UNL d   1     -16.848  10.697  10.500 -0.05 +0.04    -0.228    17.147
ATOM     31  O   UNL d   1     -14.303  10.097  10.202 -0.23 +0.05    -0.303    17.147
ATOM     32  H   UNL d   1     -14.005  10.027   9.266 +0.07 -0.05    +0.222    17.147
ATOM     33  O   UNL d   1     -14.897  12.224  11.362 -0.13 +0.26    -0.303    17.147
ATOM     34  H   UNL d   1     -14.666  13.070  10.905 -0.47 -0.45    +0.222    17.147
ATOM     35  O   UNL d   1     -14.378  11.295   4.411 -0.07 +0.06    -0.278    17.147
ATOM     36  P   UNL d   1     -13.991  10.032   3.516 -0.19 -0.06    +0.473    17.147
ATOM     37  O   UNL d   1     -14.632   9.977   2.166 -0.24 +0.04    -0.228    17.147
ATOM     38  O   UNL d   1     -12.402  10.131   3.483 -0.33 +0.04    -0.303    17.147
ATOM     39  H   UNL d   1     -12.023   9.397   4.013 +0.09 -0.02    +0.222    17.147
ATOM     40  O   UNL d   1     -14.278   8.817   4.502 -0.12 +0.03    -0.303    17.147
ATOM     41  H   UNL d   1     -14.103   9.059   5.439 +0.09 -0.03    +0.222    17.147
ATOM     42  O   UNL d   1     -14.490   9.954   6.995 -0.08 +0.06    -0.278    17.147
ATOM     43  P   UNL d   1     -12.973   9.747   7.444 -0.28 -0.10    +0.473    17.147
ATOM     44  O   UNL d   1     -12.667   8.572   8.305 -0.76 +0.01    -0.228    17.147
ATOM     45  O   UNL d   1     -12.195   9.757   6.056 -0.10 +0.09    -0.303    17.147
ATOM     46  H   UNL d   1     -12.739  10.147   5.343 +0.11 -0.05    +0.222    17.147
ATOM     47  O   UNL d   1     -12.573  11.175   8.052 -0.50 +0.17    -0.303    17.147
ATOM     48  H   UNL d   1     -13.150  11.372   8.819 -0.02 -0.19    +0.222    17.147
TER
ENDMDL
MODEL       57
USER    Run = 57
USER    Cluster Rank = 13
USER    Number of conformations in this cluster = 1
USER  
USER    RMSD from reference structure       = 18.754 A
USER  
USER    Estimated Free Energy of Binding    =   +1.48 kcal/mol  [=(1)+(2)+(3)-(4)]
USER    
USER    (1) Final Intermolecular Energy     =   -5.68 kcal/mol
USER        vdW + Hbond + desolv Energy     =   -5.35 kcal/mol
USER        Electrostatic Energy            =   -0.33 kcal/mol
USER    (2) Final Total Internal Energy     =  -12.75 kcal/mol
USER    (3) Torsional Free Energy           =   +7.16 kcal/mol
USER    (4) Unbound System's Energy  [=(2)] =  -12.75 kcal/mol
USER    
USER    
USER  
USER    DPF = D:/Protein_go_brrr/autodock/final/mut_D99N/IHP/dock.dpf
USER    NEWDPF move	IHP_ideal_opt.pdbqt
USER    NEWDPF about	0.035000 0.082000 -0.065000
USER    NEWDPF tran0	-7.114404 15.575719 13.466333
USER    NEWDPF axisangle0	0.232282 -0.945011 0.230215 151.072728
USER    NEWDPF quaternion0	0.224920 -0.915060 0.222918 0.249766
USER    NEWDPF dihe0	180.00 -49.81 -39.04 106.53 46.84 179.34 51.97 -149.47 180.00 -43.78 148.31 -131.13 -119.71 -19.62 -62.56 -105.33 179.90 105.72 43.44 -13.86 -180.00 46.69 26.61 -32.68 
USER  
USER                              x       y       z    vdW   Elec        q     RMS 
ATOM      1  C   UNL d   1      -7.377  13.977  12.868 -0.15 -0.04    +0.194    18.754
ATOM      2  C   UNL d   1      -6.375  14.096  14.018 -0.14 -0.04    +0.194    18.754
ATOM      3  C   UNL d   1      -5.436  15.289  13.830 -0.09 -0.04    +0.194    18.754
ATOM      4  C   UNL d   1      -6.175  16.600  13.569 -0.02 -0.03    +0.194    18.754
ATOM      5  C   UNL d   1      -7.263  16.499  12.509 -0.03 -0.03    +0.194    18.754
ATOM      6  C   UNL d   1      -8.164  15.271  12.661 -0.08 -0.05    +0.194    18.754
ATOM      7  O   UNL d   1      -8.319  12.954  13.201 -0.18 +0.07    -0.278    18.754
ATOM      8  P   UNL d   1      -7.885  11.429  13.002 -0.30 -0.14    +0.473    18.754
ATOM      9  O   UNL d   1      -7.706  11.004  11.587 -0.51 +0.07    -0.228    18.754
ATOM     10  O   UNL d   1      -6.557  11.288  13.873 -0.20 +0.10    -0.303    18.754
ATOM     11  H   UNL d   1      -6.535  11.988  14.552 +0.05 -0.07    +0.222    18.754
ATOM     12  O   UNL d   1      -8.932  10.589  13.852 -0.38 +0.13    -0.303    18.754
ATOM     13  H   UNL d   1      -8.611  10.377  14.758 -0.46 -0.17    +0.222    18.754
ATOM     14  O   UNL d   1      -7.093  14.268  15.246 -0.06 +0.06    -0.278    18.754
ATOM     15  P   UNL d   1      -6.906  13.123  16.350 -0.18 -0.13    +0.473    18.754
ATOM     16  O   UNL d   1      -5.549  12.500  16.450 -0.96 +0.05    -0.228    18.754
ATOM     17  O   UNL d   1      -7.369  13.816  17.708 -0.07 +0.08    -0.303    18.754
ATOM     18  H   UNL d   1      -6.741  13.625  18.432 +0.07 -0.08    +0.222    18.754
ATOM     19  O   UNL d   1      -8.106  12.114  16.082 -0.03 +0.13    -0.303    18.754
ATOM     20  H   UNL d   1      -8.192  11.901  15.134 -0.14 -0.10    +0.222    18.754
ATOM     21  O   UNL d   1      -8.882  15.133  11.437 -0.14 +0.11    -0.278    18.754
ATOM     22  P   UNL d   1      -8.157  14.511  10.159 -0.15 -0.17    +0.473    18.754
ATOM     23  O   UNL d   1      -6.696  14.757   9.989 -0.29 +0.04    -0.228    18.754
ATOM     24  O   UNL d   1      -8.568  12.978  10.266 -0.22 +0.11    -0.303    18.754
ATOM     25  H   UNL d   1      -8.855  12.799  11.198 +0.12 -0.05    +0.222    18.754
ATOM     26  O   UNL d   1      -9.100  15.024   8.968 -0.14 +0.24    -0.303    18.754
ATOM     27  H   UNL d   1      -9.782  15.625   9.333 -0.37 -0.32    +0.222    18.754
ATOM     28  O   UNL d   1      -4.741  15.485  15.055 -0.08 +0.05    -0.278    18.754
ATOM     29  P   UNL d   1      -3.345  16.250  15.075 -0.07 -0.07    +0.473    18.754
ATOM     30  O   UNL d   1      -2.255  15.576  15.825 -0.12 +0.02    -0.228    18.754
ATOM     31  O   UNL d   1      -3.122  16.464  13.504 -0.05 +0.05    -0.303    18.754
ATOM     32  H   UNL d   1      -3.324  17.402  13.283 +0.04 -0.03    +0.222    18.754
ATOM     33  O   UNL d   1      -3.768  17.703  15.570 -0.01 +0.03    -0.303    18.754
ATOM     34  H   UNL d   1      -3.980  18.262  14.783 +0.02 -0.02    +0.222    18.754
ATOM     35  O   UNL d   1      -8.087  17.649  12.689 -0.01 +0.05    -0.278    18.754
ATOM     36  P   UNL d   1      -8.981  18.195  11.486 -0.00 -0.11    +0.473    18.754
ATOM     37  O   UNL d   1      -8.962  19.677  11.289 -0.00 +0.03    -0.228    18.754
ATOM     38  O   UNL d   1      -8.411  17.364  10.253 -0.04 +0.09    -0.303    18.754
ATOM     39  H   UNL d   1      -9.087  16.714   9.963 +0.05 -0.12    +0.222    18.754
ATOM     40  O   UNL d   1     -10.393  17.524  11.780 -0.04 +0.12    -0.303    18.754
ATOM     41  H   UNL d   1     -10.451  16.618  11.403 +0.03 -0.14    +0.222    18.754
ATOM     42  O   UNL d   1      -5.203  17.535  13.088 -0.01 +0.03    -0.278    18.754
ATOM     43  P   UNL d   1      -5.327  19.066  13.517 +0.00 -0.04    +0.473    18.754
ATOM     44  O   UNL d   1      -4.071  19.863  13.589 -0.00 +0.01    -0.228    18.754
ATOM     45  O   UNL d   1      -6.398  19.632  12.484 -0.00 +0.02    -0.303    18.754
ATOM     46  H   UNL d   1      -7.303  19.341  12.712 +0.00 -0.02    +0.222    18.754
ATOM     47  O   UNL d   1      -6.183  18.999  14.870 -0.00 +0.03    -0.303    18.754
ATOM     48  H   UNL d   1      -5.805  18.313  15.458 +0.01 -0.02    +0.222    18.754
TER
ENDMDL
MODEL       24
USER    Run = 24
USER    Cluster Rank = 14
USER    Number of conformations in this cluster = 3
USER  
USER    RMSD from reference structure       = 16.158 A
USER  
USER    Estimated Free Energy of Binding    =   +1.53 kcal/mol  [=(1)+(2)+(3)-(4)]
USER    
USER    (1) Final Intermolecular Energy     =   -5.63 kcal/mol
USER        vdW + Hbond + desolv Energy     =   -5.66 kcal/mol
USER        Electrostatic Energy            =   +0.02 kcal/mol
USER    (2) Final Total Internal Energy     =  -12.99 kcal/mol
USER    (3) Torsional Free Energy           =   +7.16 kcal/mol
USER    (4) Unbound System's Energy  [=(2)] =  -12.99 kcal/mol
USER    
USER    
USER  
USER    DPF = D:/Protein_go_brrr/autodock/final/mut_D99N/IHP/dock.dpf
USER    NEWDPF move	IHP_ideal_opt.pdbqt
USER    NEWDPF about	0.035000 0.082000 -0.065000
USER    NEWDPF tran0	-9.845255 13.482164 -9.301411
USER    NEWDPF axisangle0	-0.496345 0.619955 0.607699 -150.898563
USER    NEWDPF quaternion0	-0.480425 0.600070 0.588207 -0.251237
USER    NEWDPF dihe0	-179.77 -34.73 -179.23 74.01 -18.82 -165.70 -39.82 -17.51 179.70 119.50 158.15 132.47 108.68 107.43 6.61 32.87 -2.61 180.00 9.62 -31.53 166.73 -42.99 -39.67 30.25 
USER  
USER                              x       y       z    vdW   Elec        q     RMS 
ATOM      1  C   UNL d   1      -9.796  14.016 -10.944 -0.16 -0.04    +0.194    16.158
ATOM      2  C   UNL d   1      -8.483  14.140 -10.168 -0.15 -0.01    +0.194    16.158
ATOM      3  C   UNL d   1      -8.709  14.682  -8.755 -0.12 -0.00    +0.194    16.158
ATOM      4  C   UNL d   1      -9.768  13.907  -7.976 -0.19 -0.01    +0.194    16.158
ATOM      5  C   UNL d   1     -11.054  13.659  -8.754 -0.16 -0.02    +0.194    16.158
ATOM      6  C   UNL d   1     -10.827  13.176 -10.188 -0.21 -0.04    +0.194    16.158
ATOM      7  O   UNL d   1      -9.523  13.347 -12.177 -0.13 +0.11    -0.278    16.158
ATOM      8  P   UNL d   1      -9.680  14.170 -13.538 -0.05 -0.15    +0.473    16.158
ATOM      9  O   UNL d   1      -8.965  13.595 -14.709 -0.51 +0.05    -0.228    16.158
ATOM     10  O   UNL d   1     -11.258  14.267 -13.751 -0.09 +0.12    -0.303    16.158
ATOM     11  H   UNL d   1     -11.712  14.148 -12.896 +0.01 -0.09    +0.222    16.158
ATOM     12  O   UNL d   1      -9.303  15.667 -13.161 -0.02 +0.04    -0.303    16.158
ATOM     13  H   UNL d   1     -10.038  16.151 -12.721 +0.02 -0.03    +0.222    16.158
ATOM     14  O   UNL d   1      -7.874  12.847 -10.069 -0.23 +0.01    -0.278    16.158
ATOM     15  P   UNL d   1      -6.689  12.532 -11.100 -0.18 -0.03    +0.473    16.158
ATOM     16  O   UNL d   1      -5.797  11.378 -10.766 -0.19 -0.00    -0.228    16.158
ATOM     17  O   UNL d   1      -7.429  12.356 -12.499 -0.18 +0.06    -0.303    16.158
ATOM     18  H   UNL d   1      -7.567  13.219 -12.935 +0.06 -0.04    +0.222    16.158
ATOM     19  O   UNL d   1      -5.957  13.930 -11.299 -0.05 +0.01    -0.303    16.158
ATOM     20  H   UNL d   1      -6.221  14.576 -10.619 +0.06 -0.01    +0.222    16.158
ATOM     21  O   UNL d   1     -12.068  13.322 -10.874 -0.16 +0.08    -0.278    16.158
ATOM     22  P   UNL d   1     -12.685  14.776 -11.094 -0.02 -0.09    +0.473    16.158
ATOM     23  O   UNL d   1     -11.750  15.904 -11.375 -0.02 +0.03    -0.228    16.158
ATOM     24  O   UNL d   1     -13.763  14.504 -12.233 -0.02 +0.08    -0.303    16.158
ATOM     25  H   UNL d   1     -13.303  14.546 -13.109 +0.04 -0.06    +0.222    16.158
ATOM     26  O   UNL d   1     -13.610  14.938  -9.794 -0.01 +0.05    -0.303    16.158
ATOM     27  H   UNL d   1     -13.311  14.309  -9.107 +0.06 -0.03    +0.222    16.158
ATOM     28  O   UNL d   1      -7.499  14.503  -8.030 -0.16 -0.01    -0.278    16.158
ATOM     29  P   UNL d   1      -6.197  15.333  -8.418 -0.11 +0.01    +0.473    16.158
ATOM     30  O   UNL d   1      -6.392  16.385  -9.449 -0.03 +0.00    -0.228    16.158
ATOM     31  O   UNL d   1      -5.731  15.817  -6.965 -0.06 -0.02    -0.303    16.158
ATOM     32  H   UNL d   1      -6.245  15.319  -6.289 +0.07 +0.02    +0.222    16.158
ATOM     33  O   UNL d   1      -5.153  14.180  -8.756 -0.18 +0.01    -0.303    16.158
ATOM     34  H   UNL d   1      -5.611  13.474  -9.274 +0.09 +0.00    +0.222    16.158
ATOM     35  O   UNL d   1     -11.730  12.613  -8.061 -0.19 +0.04    -0.278    16.158
ATOM     36  P   UNL d   1     -12.778  12.957  -6.908 -0.23 -0.06    +0.473    16.158
ATOM     37  O   UNL d   1     -13.696  14.104  -7.193 -0.15 +0.03    -0.228    16.158
ATOM     38  O   UNL d   1     -13.517  11.561  -6.711 -0.75 +0.10    -0.303    16.158
ATOM     39  H   UNL d   1     -13.255  11.178  -5.846 -0.42 -0.09    +0.222    16.158
ATOM     40  O   UNL d   1     -11.845  13.081  -5.626 -0.32 +0.01    -0.303    16.158
ATOM     41  H   UNL d   1     -11.369  13.941  -5.603 +0.11 -0.01    +0.222    16.158
ATOM     42  O   UNL d   1     -10.112  14.704  -6.838 -0.09 +0.00    -0.278    16.158
ATOM     43  P   UNL d   1      -9.161  14.671  -5.557 -0.18 +0.04    +0.473    16.158
ATOM     44  O   UNL d   1      -9.810  14.533  -4.224 -0.26 -0.00    -0.228    16.158
ATOM     45  O   UNL d   1      -8.142  13.500  -5.909 -0.26 -0.05    -0.303    16.158
ATOM     46  H   UNL d   1      -7.396  13.826  -6.452 +0.09 +0.04    +0.222    16.158
ATOM     47  O   UNL d   1      -8.242  15.970  -5.749 -0.09 -0.04    -0.303    16.158
ATOM     48  H   UNL d   1      -7.888  15.983  -6.662 +0.06 +0.02    +0.222    16.158
TER
ENDMDL
MODEL       21
USER    Run = 21
USER    Cluster Rank = 15
USER    Number of conformations in this cluster = 1
USER  
USER    RMSD from reference structure       = 18.186 A
USER  
USER    Estimated Free Energy of Binding    =   +1.55 kcal/mol  [=(1)+(2)+(3)-(4)]
USER    
USER    (1) Final Intermolecular Energy     =   -5.60 kcal/mol
USER        vdW + Hbond + desolv Energy     =   -5.47 kcal/mol
USER        Electrostatic Energy            =   -0.14 kcal/mol
USER    (2) Final Total Internal Energy     =  -12.79 kcal/mol
USER    (3) Torsional Free Energy           =   +7.16 kcal/mol
USER    (4) Unbound System's Energy  [=(2)] =  -12.79 kcal/mol
USER    
USER    
USER  
USER    DPF = D:/Protein_go_brrr/autodock/final/mut_D99N/IHP/dock.dpf
USER    NEWDPF move	IHP_ideal_opt.pdbqt
USER    NEWDPF about	0.035000 0.082000 -0.065000
USER    NEWDPF tran0	-5.083544 16.062245 13.215994
USER    NEWDPF axisangle0	0.864534 0.486857 0.124707 -85.252843
USER    NEWDPF quaternion0	0.585475 0.329707 0.084454 -0.735785
USER    NEWDPF dihe0	-118.79 -6.80 33.60 -70.99 -23.39 164.63 2.82 -151.77 -52.18 55.69 133.49 -180.00 112.45 -69.87 -93.92 114.07 52.41 -135.51 -15.65 13.41 148.14 -11.24 -15.62 158.01 
USER  
USER                              x       y       z    vdW   Elec        q     RMS 
ATOM      1  C   UNL d   1      -3.891  15.798  11.994 -0.14 -0.05    +0.194    18.186
ATOM      2  C   UNL d   1      -5.276  15.217  11.703 -0.16 -0.04    +0.194    18.186
ATOM      3  C   UNL d   1      -5.877  14.538  12.936 -0.15 -0.05    +0.194    18.186
ATOM      4  C   UNL d   1      -5.874  15.430  14.175 -0.06 -0.04    +0.194    18.186
ATOM      5  C   UNL d   1      -4.542  16.122  14.439 -0.07 -0.03    +0.194    18.186
ATOM      6  C   UNL d   1      -3.912  16.747  13.193 -0.05 -0.03    +0.194    18.186
ATOM      7  O   UNL d   1      -3.478  16.557  10.856 -0.11 +0.04    -0.278    18.186
ATOM      8  P   UNL d   1      -1.962  16.431  10.369 -0.17 -0.05    +0.473    18.186
ATOM      9  O   UNL d   1      -1.695  16.939   8.996 -0.27 -0.00    -0.228    18.186
ATOM     10  O   UNL d   1      -1.129  17.197  11.494 -0.07 +0.02    -0.303    18.186
ATOM     11  H   UNL d   1      -0.964  16.597  12.244 +0.06 -0.03    +0.222    18.186
ATOM     12  O   UNL d   1      -1.566  14.916  10.637 -0.15 +0.07    -0.303    18.186
ATOM     13  H   UNL d   1      -1.756  14.625  11.558 -0.15 -0.11    +0.222    18.186
ATOM     14  O   UNL d   1      -6.150  16.276  11.294 -0.05 +0.04    -0.278    18.186
ATOM     15  P   UNL d   1      -7.247  15.911  10.186 -0.12 -0.10    +0.473    18.186
ATOM     16  O   UNL d   1      -7.053  14.625   9.446 -0.25 +0.04    -0.228    18.186
ATOM     17  O   UNL d   1      -8.630  15.968  10.975 -0.10 +0.12    -0.303    18.186
ATOM     18  H   UNL d   1      -8.654  15.303  11.690 +0.07 -0.08    +0.222    18.186
ATOM     19  O   UNL d   1      -7.344  17.215   9.279 -0.07 +0.04    -0.303    18.186
ATOM     20  H   UNL d   1      -8.269  17.494   9.146 +0.05 -0.05    +0.222    18.186
ATOM     21  O   UNL d   1      -2.555  17.038  13.519 -0.03 +0.04    -0.278    18.186
ATOM     22  P   UNL d   1      -1.670  15.945  14.272 -0.13 -0.09    +0.473    18.186
ATOM     23  O   UNL d   1      -2.076  15.536  15.648 -0.14 +0.03    -0.228    18.186
ATOM     24  O   UNL d   1      -1.636  14.763  13.207 -0.22 +0.11    -0.303    18.186
ATOM     25  H   UNL d   1      -2.413  14.172  13.378 -0.40 -0.13    +0.222    18.186
ATOM     26  O   UNL d   1      -0.197  16.563  14.128 -0.07 +0.05    -0.303    18.186
ATOM     27  H   UNL d   1      -0.226  17.323  13.512 +0.04 -0.02    +0.222    18.186
ATOM     28  O   UNL d   1      -7.247  14.282  12.659 -0.09 +0.06    -0.278    18.186
ATOM     29  P   UNL d   1      -7.717  12.831  12.198 -0.26 -0.11    +0.473    18.186
ATOM     30  O   UNL d   1      -8.059  11.890  13.295 -0.36 +0.06    -0.228    18.186
ATOM     31  O   UNL d   1      -8.894  13.227  11.187 -0.02 +0.09    -0.303    18.186
ATOM     32  H   UNL d   1      -8.534  13.851  10.516 +0.10 -0.08    +0.222    18.186
ATOM     33  O   UNL d   1      -6.542  12.396  11.215 -0.33 +0.06    -0.303    18.186
ATOM     34  H   UNL d   1      -6.786  12.648  10.291 +0.12 -0.05    +0.222    18.186
ATOM     35  O   UNL d   1      -4.831  17.186  15.343 -0.01 +0.03    -0.278    18.186
ATOM     36  P   UNL d   1      -4.227  17.174  16.819 -0.02 -0.05    +0.473    18.186
ATOM     37  O   UNL d   1      -2.976  17.972  17.010 -0.03 +0.02    -0.228    18.186
ATOM     38  O   UNL d   1      -5.466  17.682  17.682 -0.00 +0.03    -0.303    18.186
ATOM     39  H   UNL d   1      -5.204  18.489  18.175 +0.01 -0.02    +0.222    18.186
ATOM     40  O   UNL d   1      -4.148  15.619  17.141 -0.08 +0.04    -0.303    18.186
ATOM     41  H   UNL d   1      -4.259  15.073  16.331 +0.06 -0.04    +0.222    18.186
ATOM     42  O   UNL d   1      -6.137  14.582  15.297 -0.07 +0.06    -0.278    18.186
ATOM     43  P   UNL d   1      -5.333  13.210  15.433 -0.20 -0.11    +0.473    18.186
ATOM     44  O   UNL d   1      -5.927  12.001  14.797 -0.57 +0.06    -0.228    18.186
ATOM     45  O   UNL d   1      -3.891  13.595  14.881 -0.26 +0.10    -0.303    18.186
ATOM     46  H   UNL d   1      -3.482  14.306  15.413 +0.08 -0.05    +0.222    18.186
ATOM     47  O   UNL d   1      -5.060  13.100  17.008 -0.71 +0.13    -0.303    18.186
ATOM     48  H   UNL d   1      -5.432  13.888  17.456 +0.07 -0.08    +0.222    18.186
TER
ENDMDL
MODEL       66
USER    Run = 66
USER    Cluster Rank = 16
USER    Number of conformations in this cluster = 2
USER  
USER    RMSD from reference structure       = 13.886 A
USER  
USER    Estimated Free Energy of Binding    =   +1.62 kcal/mol  [=(1)+(2)+(3)-(4)]
USER    
USER    (1) Final Intermolecular Energy     =   -5.54 kcal/mol
USER        vdW + Hbond + desolv Energy     =   -5.43 kcal/mol
USER        Electrostatic Energy            =   -0.11 kcal/mol
USER    (2) Final Total Internal Energy     =  -12.74 kcal/mol
USER    (3) Torsional Free Energy           =   +7.16 kcal/mol
USER    (4) Unbound System's Energy  [=(2)] =  -12.74 kcal/mol
USER    
USER    
USER  
USER    DPF = D:/Protein_go_brrr/autodock/final/mut_D99N/IHP/dock.dpf
USER    NEWDPF move	IHP_ideal_opt.pdbqt
USER    NEWDPF about	0.035000 0.082000 -0.065000
USER    NEWDPF tran0	2.589795 -16.530392 2.858223
USER    NEWDPF axisangle0	-0.325430 -0.567390 0.756415 -131.487321
USER    NEWDPF quaternion0	-0.296700 -0.517299 0.689636 -0.410820
USER    NEWDPF dihe0	168.15 -28.94 122.02 -47.32 118.39 84.53 45.80 -83.17 -25.38 83.79 17.41 178.85 35.76 85.69 108.18 -109.70 -83.32 -147.74 39.36 -10.73 -59.53 46.22 50.79 -41.77 
USER  
USER                              x       y       z    vdW   Elec        q     RMS 
ATOM      1  C   UNL d   1       1.551 -15.694   3.956 -0.13 -0.04    +0.194    13.886
ATOM      2  C   UNL d   1       2.675 -16.509   4.600 -0.13 -0.04    +0.194    13.886
ATOM      3  C   UNL d   1       2.836 -17.877   3.934 -0.07 -0.04    +0.194    13.886
ATOM      4  C   UNL d   1       2.979 -17.794   2.416 +0.02 -0.05    +0.194    13.886
ATOM      5  C   UNL d   1       1.947 -16.898   1.743 -0.11 -0.03    +0.194    13.886
ATOM      6  C   UNL d   1       1.741 -15.554   2.446 -0.19 -0.05    +0.194    13.886
ATOM      7  O   UNL d   1       1.579 -14.378   4.513 -0.19 +0.09    -0.278    13.886
ATOM      8  P   UNL d   1       0.851 -14.130   5.913 -0.16 -0.07    +0.473    13.886
ATOM      9  O   UNL d   1       1.689 -14.390   7.116 -0.20 +0.03    -0.228    13.886
ATOM     10  O   UNL d   1       0.336 -12.623   5.820 -0.81 -0.02    -0.303    13.886
ATOM     11  H   UNL d   1       0.441 -12.298   4.906 +0.03 +0.02    +0.222    13.886
ATOM     12  O   UNL d   1      -0.507 -14.951   5.823 -0.03 +0.03    -0.303    13.886
ATOM     13  H   UNL d   1      -1.176 -14.527   5.241 +0.06 -0.02    +0.222    13.886
ATOM     14  O   UNL d   1       3.907 -15.789   4.469 -0.25 +0.10    -0.278    13.886
ATOM     15  P   UNL d   1       4.664 -15.413   5.829 -0.22 -0.12    +0.473    13.886
ATOM     16  O   UNL d   1       6.157 -15.518   5.817 -0.23 +0.06    -0.228    13.886
ATOM     17  O   UNL d   1       4.151 -13.943   6.164 -0.19 +0.10    -0.303    13.886
ATOM     18  H   UNL d   1       3.268 -13.782   5.779 -0.20 -0.10    +0.222    13.886
ATOM     19  O   UNL d   1       3.925 -16.272   6.945 -0.05 +0.04    -0.303    13.886
ATOM     20  H   UNL d   1       3.361 -15.715   7.513 +0.06 -0.03    +0.222    13.886
ATOM     21  O   UNL d   1       0.539 -14.995   1.923 -0.08 +0.04    -0.278    13.886
ATOM     22  P   UNL d   1       0.247 -13.437   2.099 -0.13 -0.08    +0.473    13.886
ATOM     23  O   UNL d   1      -0.329 -12.692   0.943 -0.32 +0.02    -0.228    13.886
ATOM     24  O   UNL d   1      -0.647 -13.420   3.416 -0.10 +0.03    -0.303    13.886
ATOM     25  H   UNL d   1      -0.166 -13.923   4.122 +0.08 -0.03    +0.222    13.886
ATOM     26  O   UNL d   1       1.655 -12.903   2.649 -0.24 +0.14    -0.303    13.886
ATOM     27  H   UNL d   1       1.659 -12.953   3.626 -0.42 -0.14    +0.222    13.886
ATOM     28  O   UNL d   1       4.057 -18.438   4.398 -0.06 +0.05    -0.278    13.886
ATOM     29  P   UNL d   1       4.281 -20.015   4.365 -0.01 -0.04    +0.473    13.886
ATOM     30  O   UNL d   1       4.887 -20.602   5.588 -0.01 +0.01    -0.228    13.886
ATOM     31  O   UNL d   1       2.805 -20.499   3.981 -0.00 +0.02    -0.303    13.886
ATOM     32  H   UNL d   1       2.770 -20.659   3.010 +0.01 -0.01    +0.222    13.886
ATOM     33  O   UNL d   1       5.081 -20.210   3.002 -0.03 +0.03    -0.303    13.886
ATOM     34  H   UNL d   1       4.881 -19.450   2.401 +0.02 -0.03    +0.222    13.886
ATOM     35  O   UNL d   1       2.465 -16.618   0.445 -0.12 +0.03    -0.278    13.886
ATOM     36  P   UNL d   1       1.663 -15.668  -0.554 -0.12 -0.04    +0.473    13.886
ATOM     37  O   UNL d   1       0.176 -15.831  -0.545 -0.06 +0.02    -0.228    13.886
ATOM     38  O   UNL d   1       2.166 -14.225  -0.107 -0.26 +0.07    -0.303    13.886
ATOM     39  H   UNL d   1       1.523 -13.844   0.530 +0.10 -0.06    +0.222    13.886
ATOM     40  O   UNL d   1       2.408 -15.921  -1.937 -0.16 +0.01    -0.303    13.886
ATOM     41  H   UNL d   1       2.610 -16.873  -2.072 +0.07 -0.01    +0.222    13.886
ATOM     42  O   UNL d   1       2.783 -19.118   1.908 -0.05 +0.03    -0.278    13.886
ATOM     43  P   UNL d   1       3.475 -19.525   0.530 -0.05 -0.03    +0.473    13.886
ATOM     44  O   UNL d   1       2.617 -19.550  -0.688 -0.03 +0.01    -0.228    13.886
ATOM     45  O   UNL d   1       4.701 -18.515   0.442 -0.11 +0.04    -0.303    13.886
ATOM     46  H   UNL d   1       4.404 -17.585   0.507 -0.37 -0.03    +0.222    13.886
ATOM     47  O   UNL d   1       4.213 -20.903   0.884 -0.01 +0.01    -0.303    13.886
ATOM     48  H   UNL d   1       4.078 -21.107   1.833 +0.01 -0.01    +0.222    13.886
TER
ENDMDL
MODEL        8
USER    Run = 8
USER    Cluster Rank = 17
USER    Number of conformations in this cluster = 2
USER  
USER    RMSD from reference structure       = 17.661 A
USER  
USER    Estimated Free Energy of Binding    =   +1.66 kcal/mol  [=(1)+(2)+(3)-(4)]
USER    
USER    (1) Final Intermolecular Energy     =   -5.50 kcal/mol
USER        vdW + Hbond + desolv Energy     =   -5.35 kcal/mol
USER        Electrostatic Energy            =   -0.15 kcal/mol
USER    (2) Final Total Internal Energy     =  -14.39 kcal/mol
USER    (3) Torsional Free Energy           =   +7.16 kcal/mol
USER    (4) Unbound System's Energy  [=(2)] =  -14.39 kcal/mol
USER    
USER    
USER  
USER    DPF = D:/Protein_go_brrr/autodock/final/mut_D99N/IHP/dock.dpf
USER    NEWDPF move	IHP_ideal_opt.pdbqt
USER    NEWDPF about	0.035000 0.082000 -0.065000
USER    NEWDPF tran0	15.876259 -12.686716 -4.516809
USER    NEWDPF axisangle0	0.800040 -0.212316 0.561122 -106.115134
USER    NEWDPF quaternion0	0.639424 -0.169692 0.448471 -0.601012
USER    NEWDPF dihe0	97.06 -0.65 -164.39 153.21 -5.57 101.47 24.99 -130.04 159.05 127.25 -35.01 -171.23 157.09 70.75 -180.00 -105.97 85.89 155.44 57.28 23.62 -180.00 28.99 12.92 -178.22 
USER  
USER                              x       y       z    vdW   Elec        q     RMS 
ATOM      1  C   UNL d   1      17.517 -12.816  -3.991 -0.13 -0.01    +0.194    17.661
ATOM      2  C   UNL d   1      17.314 -12.701  -5.503 -0.10 +0.00    +0.194    17.661
ATOM      3  C   UNL d   1      16.155 -13.575  -5.988 -0.06 +0.00    +0.194    17.661
ATOM      4  C   UNL d   1      14.861 -13.341  -5.212 -0.13 +0.00    +0.194    17.661
ATOM      5  C   UNL d   1      15.037 -13.333  -3.699 -0.16 -0.00    +0.194    17.661
ATOM      6  C   UNL d   1      16.233 -12.509  -3.219 -0.22 -0.02    +0.194    17.661
ATOM      7  O   UNL d   1      18.493 -11.849  -3.597 -0.16 +0.01    -0.278    17.661
ATOM      8  P   UNL d   1      19.987 -12.016  -4.136 -0.03 +0.01    +0.473    17.661
ATOM      9  O   UNL d   1      21.045 -11.465  -3.245 -0.10 -0.01    -0.228    17.661
ATOM     10  O   UNL d   1      20.134 -13.584  -4.390 -0.01 -0.01    -0.303    17.661
ATOM     11  H   UNL d   1      20.002 -14.064  -3.552 +0.03 +0.00    +0.222    17.661
ATOM     12  O   UNL d   1      19.959 -11.440  -5.617 -0.08 -0.03    -0.303    17.661
ATOM     13  H   UNL d   1      19.191 -11.761  -6.141 +0.05 +0.02    +0.222    17.661
ATOM     14  O   UNL d   1      17.026 -11.337  -5.834 -0.18 -0.01    -0.278    17.661
ATOM     15  P   UNL d   1      17.377 -10.872  -7.325 -0.13 +0.06    +0.473    17.661
ATOM     16  O   UNL d   1      16.272 -10.237  -8.109 -0.28 -0.02    -0.228    17.661
ATOM     17  O   UNL d   1      18.637  -9.914  -7.146 -0.77 -0.14    -0.303    17.661
ATOM     18  H   UNL d   1      19.468 -10.383  -7.351 +0.06 +0.04    +0.222    17.661
ATOM     19  O   UNL d   1      18.043 -12.153  -7.993 -0.04 -0.01    -0.303    17.661
ATOM     20  H   UNL d   1      17.387 -12.694  -8.470 +0.05 +0.00    +0.222    17.661
ATOM     21  O   UNL d   1      16.465 -12.872  -1.860 -0.22 +0.04    -0.278    17.661
ATOM     22  P   UNL d   1      17.206 -14.245  -1.523 -0.09 -0.05    +0.473    17.661
ATOM     23  O   UNL d   1      16.861 -14.936  -0.247 -0.15 +0.07    -0.228    17.661
ATOM     24  O   UNL d   1      16.928 -15.096  -2.839 -0.02 -0.00    -0.303    17.661
ATOM     25  H   UNL d   1      15.970 -15.350  -2.845 +0.05 +0.02    +0.222    17.661
ATOM     26  O   UNL d   1      18.745 -13.839  -1.710 -0.07 +0.01    -0.303    17.661
ATOM     27  H   UNL d   1      18.936 -13.732  -2.664 +0.05 -0.00    +0.222    17.661
ATOM     28  O   UNL d   1      15.866 -13.199  -7.328 -0.06 -0.00    -0.278    17.661
ATOM     29  P   UNL d   1      15.518 -14.307  -8.418 -0.03 -0.00    +0.473    17.661
ATOM     30  O   UNL d   1      16.249 -14.189  -9.706 -0.04 +0.01    -0.228    17.661
ATOM     31  O   UNL d   1      15.771 -15.633  -7.558 -0.01 +0.00    -0.303    17.661
ATOM     32  H   UNL d   1      15.006 -15.763  -6.951 +0.04 +0.00    +0.222    17.661
ATOM     33  O   UNL d   1      13.929 -14.226  -8.481 -0.16 +0.01    -0.303    17.661
ATOM     34  H   UNL d   1      13.555 -14.599  -7.646 +0.08 -0.00    +0.222    17.661
ATOM     35  O   UNL d   1      13.863 -12.714  -3.177 -0.24 +0.01    -0.278    17.661
ATOM     36  P   UNL d   1      13.225 -13.225  -1.807 -0.31 +0.05    +0.473    17.661
ATOM     37  O   UNL d   1      12.925 -12.162  -0.799 -0.53 +0.03    -0.228    17.661
ATOM     38  O   UNL d   1      11.945 -14.020  -2.321 -0.36 -0.08    -0.303    17.661
ATOM     39  H   UNL d   1      12.195 -14.953  -2.495 +0.10 +0.09    +0.222    17.661
ATOM     40  O   UNL d   1      14.237 -14.371  -1.368 -0.35 -0.08    -0.303    17.661
ATOM     41  H   UNL d   1      15.001 -14.010  -0.866 -0.51 -0.14    +0.222    17.661
ATOM     42  O   UNL d   1      13.986 -14.429  -5.529 -0.11 -0.01    -0.278    17.661
ATOM     43  P   UNL d   1      14.323 -15.881  -4.959 -0.01 +0.03    +0.473    17.661
ATOM     44  O   UNL d   1      13.721 -17.050  -5.659 -0.05 -0.01    -0.228    17.661
ATOM     45  O   UNL d   1      15.914 -15.885  -4.935 -0.00 -0.01    -0.303    17.661
ATOM     46  H   UNL d   1      16.281 -16.463  -5.633 +0.02 +0.01    +0.222    17.661
ATOM     47  O   UNL d   1      13.974 -15.753  -3.400 -0.08 -0.07    -0.303    17.661
ATOM     48  H   UNL d   1      13.540 -14.890  -3.236 +0.10 +0.05    +0.222    17.661
TER
ENDMDL
MODEL       26
USER    Run = 26
USER    Cluster Rank = 18
USER    Number of conformations in this cluster = 2
USER  
USER    RMSD from reference structure       = 18.489 A
USER  
USER    Estimated Free Energy of Binding    =   +1.68 kcal/mol  [=(1)+(2)+(3)-(4)]
USER    
USER    (1) Final Intermolecular Energy     =   -5.48 kcal/mol
USER        vdW + Hbond + desolv Energy     =   -5.33 kcal/mol
USER        Electrostatic Energy            =   -0.15 kcal/mol
USER    (2) Final Total Internal Energy     =  -12.87 kcal/mol
USER    (3) Torsional Free Energy           =   +7.16 kcal/mol
USER    (4) Unbound System's Energy  [=(2)] =  -12.87 kcal/mol
USER    
USER    
USER  
USER    DPF = D:/Protein_go_brrr/autodock/final/mut_D99N/IHP/dock.dpf
USER    NEWDPF move	IHP_ideal_opt.pdbqt
USER    NEWDPF about	0.035000 0.082000 -0.065000
USER    NEWDPF tran0	16.192397 -11.191740 -7.966746
USER    NEWDPF axisangle0	-0.333158 0.822993 -0.460097 -168.345922
USER    NEWDPF quaternion0	-0.331436 0.818740 -0.457720 -0.101526
USER    NEWDPF dihe0	168.20 -50.17 -14.67 -20.01 107.50 -168.93 38.10 -114.27 70.41 76.19 96.57 112.37 106.13 51.97 15.52 -126.18 136.72 -110.56 10.05 -30.76 173.38 11.07 -21.04 169.20 
USER  
USER                              x       y       z    vdW   Elec        q     RMS 
ATOM      1  C   UNL d   1      16.011 -12.849  -7.513 -0.10 +0.00    +0.194    18.489
ATOM      2  C   UNL d   1      17.148 -12.094  -6.821 -0.12 +0.01    +0.194    18.489
ATOM      3  C   UNL d   1      17.925 -11.215  -7.803 -0.16 +0.02    +0.194    18.489
ATOM      4  C   UNL d   1      17.029 -10.287  -8.619 -0.24 +0.02    +0.194    18.489
ATOM      5  C   UNL d   1      15.818 -10.976  -9.234 -0.20 +0.00    +0.194    18.489
ATOM      6  C   UNL d   1      15.076 -11.903  -8.268 -0.10 +0.00    +0.194    18.489
ATOM      7  O   UNL d   1      15.234 -13.504  -6.508 -0.08 -0.00    -0.278    18.489
ATOM      8  P   UNL d   1      15.254 -15.101  -6.454 -0.01 +0.01    +0.473    18.489
ATOM      9  O   UNL d   1      14.881 -15.692  -5.140 -0.04 -0.01    -0.228    18.489
ATOM     10  O   UNL d   1      14.282 -15.540  -7.640 -0.07 +0.00    -0.303    18.489
ATOM     11  H   UNL d   1      14.061 -14.763  -8.186 +0.07 -0.00    +0.222    18.489
ATOM     12  O   UNL d   1      16.679 -15.515  -7.021 -0.00 -0.00    -0.303    18.489
ATOM     13  H   UNL d   1      16.665 -15.730  -7.981 +0.02 -0.00    +0.222    18.489
ATOM     14  O   UNL d   1      16.597 -11.257  -5.796 -0.18 -0.01    -0.278    18.489
ATOM     15  P   UNL d   1      16.699 -11.802  -4.294 -0.16 -0.03    +0.473    18.489
ATOM     16  O   UNL d   1      17.685 -11.120  -3.398 -0.23 +0.02    -0.228    18.489
ATOM     17  O   UNL d   1      15.205 -11.715  -3.747 -0.22 +0.05    -0.303    18.489
ATOM     18  H   UNL d   1      15.119 -11.018  -3.069 -0.40 -0.10    +0.222    18.489
ATOM     19  O   UNL d   1      16.890 -13.373  -4.454 -0.04 +0.00    -0.303    18.489
ATOM     20  H   UNL d   1      16.043 -13.823  -4.630 +0.07 +0.00    +0.222    18.489
ATOM     21  O   UNL d   1      14.210 -12.715  -9.059 +0.05 +0.00    -0.278    18.489
ATOM     22  P   UNL d   1      14.826 -13.850  -9.996 -0.12 -0.02    +0.473    18.489
ATOM     23  O   UNL d   1      15.878 -14.741  -9.426 -0.04 +0.01    -0.228    18.489
ATOM     24  O   UNL d   1      13.517 -14.600 -10.500 -0.27 +0.03    -0.303    18.489
ATOM     25  H   UNL d   1      12.830 -13.917 -10.709 -0.47 -0.06    +0.222    18.489
ATOM     26  O   UNL d   1      15.246 -13.007 -11.294 -0.15 +0.02    -0.303    18.489
ATOM     27  H   UNL d   1      15.274 -12.056 -11.065 +0.09 -0.01    +0.222    18.489
ATOM     28  O   UNL d   1      18.762 -10.356  -7.039 -0.73 -0.08    -0.278    18.489
ATOM     29  P   UNL d   1      20.340 -10.371  -7.254 -0.10 +0.07    +0.473    18.489
ATOM     30  O   UNL d   1      21.152  -9.985  -6.070 -0.11 -0.03    -0.228    18.489
ATOM     31  O   UNL d   1      20.532 -11.859  -7.812 -0.02 -0.02    -0.303    18.489
ATOM     32  H   UNL d   1      20.450 -11.839  -8.793 +0.02 +0.01    +0.222    18.489
ATOM     33  O   UNL d   1      20.508  -9.480  -8.563 -0.12 -0.04    -0.303    18.489
ATOM     34  H   UNL d   1      19.947  -9.860  -9.283 +0.05 +0.02    +0.222    18.489
ATOM     35  O   UNL d   1      14.915  -9.930  -9.588 -0.27 -0.00    -0.278    18.489
ATOM     36  P   UNL d   1      14.659  -9.574 -11.121 -0.24 -0.03    +0.473    18.489
ATOM     37  O   UNL d   1      13.712  -8.443 -11.371 -0.40 +0.03    -0.228    18.489
ATOM     38  O   UNL d   1      16.139  -9.317 -11.648 -0.12 +0.00    -0.303    18.489
ATOM     39  H   UNL d   1      16.771  -9.451 -10.910 +0.09 +0.01    +0.222    18.489
ATOM     40  O   UNL d   1      14.272 -10.988 -11.738 -0.24 +0.03    -0.303    18.489
ATOM     41  H   UNL d   1      13.769 -11.539 -11.099 +0.10 -0.04    +0.222    18.489
ATOM     42  O   UNL d   1      17.824  -9.788  -9.700 -0.09 -0.03    -0.278    18.489
ATOM     43  P   UNL d   1      18.490 -10.827 -10.710 -0.05 +0.01    +0.473    18.489
ATOM     44  O   UNL d   1      19.524 -11.750 -10.164 -0.03 -0.00    -0.228    18.489
ATOM     45  O   UNL d   1      17.227 -11.564 -11.337 -0.04 +0.01    -0.303    18.489
ATOM     46  H   UNL d   1      16.422 -11.011 -11.275 +0.08 -0.01    +0.222    18.489
ATOM     47  O   UNL d   1      18.964  -9.900 -11.929 -0.06 -0.00    -0.303    18.489
ATOM     48  H   UNL d   1      18.177  -9.558 -12.400 +0.04 -0.00    +0.222    18.489
TER
ENDMDL
MODEL        3
USER    Run = 3
USER    Cluster Rank = 19
USER    Number of conformations in this cluster = 1
USER  
USER    RMSD from reference structure       = 16.002 A
USER  
USER    Estimated Free Energy of Binding    =   +1.71 kcal/mol  [=(1)+(2)+(3)-(4)]
USER    
USER    (1) Final Intermolecular Energy     =   -5.45 kcal/mol
USER        vdW + Hbond + desolv Energy     =   -5.35 kcal/mol
USER        Electrostatic Energy            =   -0.10 kcal/mol
USER    (2) Final Total Internal Energy     =  -14.54 kcal/mol
USER    (3) Torsional Free Energy           =   +7.16 kcal/mol
USER    (4) Unbound System's Energy  [=(2)] =  -14.54 kcal/mol
USER    
USER    
USER  
USER    DPF = D:/Protein_go_brrr/autodock/final/mut_D99N/IHP/dock.dpf
USER    NEWDPF move	IHP_ideal_opt.pdbqt
USER    NEWDPF about	0.035000 0.082000 -0.065000
USER    NEWDPF tran0	-12.280337 14.328869 1.860079
USER    NEWDPF axisangle0	0.730615 -0.393971 0.557663 173.036448
USER    NEWDPF quaternion0	0.729266 -0.393244 0.556634 0.060731
USER    NEWDPF dihe0	137.05 -137.95 36.96 71.86 93.73 87.18 -126.10 33.13 97.45 19.81 61.50 95.47 -48.57 -80.00 156.75 -151.28 20.24 -176.66 -166.38 -6.60 2.79 -28.76 -180.00 27.60 
USER  
USER                              x       y       z    vdW   Elec        q     RMS 
ATOM      1  C   UNL d   1     -11.062  13.856   2.990 -0.30 +0.01    +0.194    16.002
ATOM      2  C   UNL d   1     -11.061  15.335   2.597 -0.23 +0.04    +0.194    16.002
ATOM      3  C   UNL d   1     -11.270  15.521   1.093 -0.20 +0.04    +0.194    16.002
ATOM      4  C   UNL d   1     -12.496  14.783   0.560 -0.22 +0.01    +0.194    16.002
ATOM      5  C   UNL d   1     -12.598  13.335   1.022 -0.30 -0.03    +0.194    16.002
ATOM      6  C   UNL d   1     -12.328  13.141   2.515 -0.26 -0.02    +0.194    16.002
ATOM      7  O   UNL d   1     -11.036  13.774   4.417 -0.28 +0.08    -0.278    16.002
ATOM      8  P   UNL d   1     -12.349  14.192   5.226 -0.11 -0.29    +0.473    16.002
ATOM      9  O   UNL d   1     -13.516  14.569   4.382 -0.07 +0.07    -0.228    16.002
ATOM     10  O   UNL d   1     -12.635  12.941   6.173 -0.21 +0.28    -0.303    16.002
ATOM     11  H   UNL d   1     -12.191  12.151   5.813 -0.41 -0.16    +0.222    16.002
ATOM     12  O   UNL d   1     -11.860  15.291   6.265 -0.16 +0.35    -0.303    16.002
ATOM     13  H   UNL d   1     -12.595  15.670   6.798 -0.29 -0.35    +0.222    16.002
ATOM     14  O   UNL d   1     -12.121  16.003   3.292 -0.06 +0.01    -0.278    16.002
ATOM     15  P   UNL d   1     -11.711  17.280   4.167 -0.03 -0.02    +0.473    16.002
ATOM     16  O   UNL d   1     -10.294  17.338   4.647 -0.14 -0.02    -0.228    16.002
ATOM     17  O   UNL d   1     -12.103  18.521   3.249 -0.01 -0.01    -0.303    16.002
ATOM     18  H   UNL d   1     -11.633  18.489   2.394 +0.03 +0.03    +0.222    16.002
ATOM     19  O   UNL d   1     -12.823  17.358   5.301 -0.02 +0.09    -0.303    16.002
ATOM     20  H   UNL d   1     -13.362  16.546   5.334 +0.04 -0.09    +0.222    16.002
ATOM     21  O   UNL d   1     -12.120  11.745   2.718 -0.23 +0.05    -0.278    16.002
ATOM     22  P   UNL d   1     -13.310  10.840   3.276 -0.23 -0.08    +0.473    16.002
ATOM     23  O   UNL d   1     -13.013   9.421   3.624 -0.33 +0.02    -0.228    16.002
ATOM     24  O   UNL d   1     -13.852  11.724   4.484 -0.09 +0.08    -0.303    16.002
ATOM     25  H   UNL d   1     -13.659  12.675   4.281 +0.10 -0.06    +0.222    16.002
ATOM     26  O   UNL d   1     -14.442  11.070   2.164 -0.25 +0.06    -0.303    16.002
ATOM     27  H   UNL d   1     -14.962  11.867   2.394 +0.09 -0.04    +0.222    16.002
ATOM     28  O   UNL d   1     -11.532  16.900   0.865 -0.05 -0.06    -0.278    16.002
ATOM     29  P   UNL d   1     -10.330  17.941   0.769 -0.07 +0.19    +0.473    16.002
ATOM     30  O   UNL d   1     -10.726  19.362   0.593 -0.02 -0.05    -0.228    16.002
ATOM     31  O   UNL d   1      -9.532  17.571   2.106 -0.11 -0.22    -0.303    16.002
ATOM     32  H   UNL d   1     -10.031  17.925   2.878 +0.04 +0.09    +0.222    16.002
ATOM     33  O   UNL d   1      -9.423  17.300  -0.371 -0.10 -0.21    -0.303    16.002
ATOM     34  H   UNL d   1      -9.686  17.682  -1.244 +0.05 +0.10    +0.222    16.002
ATOM     35  O   UNL d   1     -13.950  12.948   0.786 -0.28 +0.04    -0.278    16.002
ATOM     36  P   UNL d   1     -15.150  13.870   1.288 -0.10 -0.04    +0.473    16.002
ATOM     37  O   UNL d   1     -15.241  15.218   0.646 -0.10 +0.01    -0.228    16.002
ATOM     38  O   UNL d   1     -16.412  12.934   1.026 -0.15 +0.04    -0.303    16.002
ATOM     39  H   UNL d   1     -16.130  11.995   1.072 +0.01 -0.05    +0.222    16.002
ATOM     40  O   UNL d   1     -14.969  13.833   2.868 -0.03 +0.04    -0.303    16.002
ATOM     41  H   UNL d   1     -14.455  13.047   3.157 +0.08 -0.04    +0.222    16.002
ATOM     42  O   UNL d   1     -12.380  14.763  -0.867 -0.13 -0.01    -0.278    16.002
ATOM     43  P   UNL d   1     -12.872  16.032  -1.699 -0.07 +0.02    +0.473    16.002
ATOM     44  O   UNL d   1     -13.769  15.784  -2.862 -0.15 -0.00    -0.228    16.002
ATOM     45  O   UNL d   1     -13.506  16.962  -0.574 -0.03 -0.01    -0.303    16.002
ATOM     46  H   UNL d   1     -13.609  16.481   0.272 +0.05 +0.01    +0.222    16.002
ATOM     47  O   UNL d   1     -11.508  16.805  -2.030 -0.04 -0.04    -0.303    16.002
ATOM     48  H   UNL d   1     -11.279  17.391  -1.279 +0.05 +0.04    +0.222    16.002
TER
ENDMDL
MODEL       32
USER    Run = 32
USER    Cluster Rank = 20
USER    Number of conformations in this cluster = 1
USER  
USER    RMSD from reference structure       = 18.478 A
USER  
USER    Estimated Free Energy of Binding    =   +1.77 kcal/mol  [=(1)+(2)+(3)-(4)]
USER    
USER    (1) Final Intermolecular Energy     =   -5.39 kcal/mol
USER        vdW + Hbond + desolv Energy     =   -5.21 kcal/mol
USER        Electrostatic Energy            =   -0.18 kcal/mol
USER    (2) Final Total Internal Energy     =  -13.34 kcal/mol
USER    (3) Torsional Free Energy           =   +7.16 kcal/mol
USER    (4) Unbound System's Energy  [=(2)] =  -13.34 kcal/mol
USER    
USER    
USER  
USER    DPF = D:/Protein_go_brrr/autodock/final/mut_D99N/IHP/dock.dpf
USER    NEWDPF move	IHP_ideal_opt.pdbqt
USER    NEWDPF about	0.035000 0.082000 -0.065000
USER    NEWDPF tran0	17.763008 -13.361834 -1.179061
USER    NEWDPF axisangle0	0.695076 0.718927 -0.003653 -138.325873
USER    NEWDPF quaternion0	0.649615 0.671906 -0.003414 -0.355712
USER    NEWDPF dihe0	88.43 7.70 119.98 113.87 92.66 79.38 -30.07 157.19 116.35 -28.56 52.29 -4.95 -176.52 90.36 68.56 -43.05 166.66 -94.83 27.89 -24.10 172.78 -18.59 12.92 167.63 
USER  
USER                              x       y       z    vdW   Elec        q     RMS 
ATOM      1  C   UNL d   1      17.482 -12.779  -2.781 -0.20 -0.01    +0.194    18.478
ATOM      2  C   UNL d   1      16.482 -13.818  -2.271 -0.17 -0.02    +0.194    18.478
ATOM      3  C   UNL d   1      17.181 -14.964  -1.535 -0.11 -0.01    +0.194    18.478
ATOM      4  C   UNL d   1      18.126 -14.484  -0.436 -0.11 -0.02    +0.194    18.478
ATOM      5  C   UNL d   1      19.065 -13.365  -0.869 -0.16 -0.01    +0.194    18.478
ATOM      6  C   UNL d   1      18.377 -12.250  -1.659 -0.13 -0.01    +0.194    18.478
ATOM      7  O   UNL d   1      16.745 -11.668  -3.298 -0.24 +0.04    -0.278    18.478
ATOM      8  P   UNL d   1      16.433 -11.627  -4.864 -0.13 -0.02    +0.473    18.478
ATOM      9  O   UNL d   1      16.885 -10.395  -5.566 -0.16 -0.01    -0.228    18.478
ATOM     10  O   UNL d   1      17.111 -12.957  -5.428 -0.05 -0.00    -0.303    18.478
ATOM     11  H   UNL d   1      18.081 -12.874  -5.381 +0.05 +0.00    +0.222    18.478
ATOM     12  O   UNL d   1      14.885 -11.966  -4.985 -0.14 +0.01    -0.303    18.478
ATOM     13  H   UNL d   1      14.587 -12.645  -4.338 +0.12 -0.01    +0.222    18.478
ATOM     14  O   UNL d   1      15.570 -13.184  -1.366 -0.19 +0.10    -0.278    18.478
ATOM     15  P   UNL d   1      14.078 -12.953  -1.900 -0.24 -0.05    +0.473    18.478
ATOM     16  O   UNL d   1      12.978 -13.060  -0.889 -0.92 -0.02    -0.228    18.478
ATOM     17  O   UNL d   1      14.134 -11.524  -2.601 -0.31 +0.06    -0.303    18.478
ATOM     18  H   UNL d   1      15.043 -11.308  -2.887 -0.34 -0.08    +0.222    18.478
ATOM     19  O   UNL d   1      13.951 -13.921  -3.156 -0.13 -0.02    -0.303    18.478
ATOM     20  H   UNL d   1      14.182 -14.840  -2.927 +0.09 +0.04    +0.222    18.478
ATOM     21  O   UNL d   1      19.409 -11.482  -2.274 -0.22 +0.02    -0.278    18.478
ATOM     22  P   UNL d   1      20.252 -12.108  -3.475 -0.06 +0.01    +0.473    18.478
ATOM     23  O   UNL d   1      19.870 -11.741  -4.870 -0.09 -0.01    -0.228    18.478
ATOM     24  O   UNL d   1      21.740 -11.719  -3.066 -0.05 -0.01    -0.303    18.478
ATOM     25  H   UNL d   1      21.774 -11.624  -2.080 +0.05 +0.01    +0.222    18.478
ATOM     26  O   UNL d   1      20.210 -13.671  -3.123 -0.02 -0.00    -0.303    18.478
ATOM     27  H   UNL d   1      21.015 -13.910  -2.620 +0.03 +0.00    +0.222    18.478
ATOM     28  O   UNL d   1      16.179 -15.719  -0.867 -0.14 -0.02    -0.278    18.478
ATOM     29  P   UNL d   1      15.507 -16.974  -1.582 -0.05 +0.19    +0.473    18.478
ATOM     30  O   UNL d   1      14.629 -16.659  -2.738 -0.08 -0.07    -0.228    18.478
ATOM     31  O   UNL d   1      16.810 -17.856  -1.879 -0.00 -0.04    -0.303    18.478
ATOM     32  H   UNL d   1      17.527 -17.573  -1.265 +0.02 +0.02    +0.222    18.478
ATOM     33  O   UNL d   1      14.837 -17.738  -0.356 -0.53 -0.32    -0.303    18.478
ATOM     34  H   UNL d   1      14.911 -18.712  -0.506 +0.02 +0.11    +0.222    18.478
ATOM     35  O   UNL d   1      19.557 -12.784   0.336 -0.21 +0.01    -0.278    18.478
ATOM     36  P   UNL d   1      21.063 -12.265   0.424 -0.15 +0.04    +0.473    18.478
ATOM     37  O   UNL d   1      21.700 -12.358   1.774 -0.15 -0.06    -0.228    18.478
ATOM     38  O   UNL d   1      21.776 -13.144  -0.697 -0.03 -0.02    -0.303    18.478
ATOM     39  H   UNL d   1      21.225 -13.136  -1.510 +0.04 +0.01    +0.222    18.478
ATOM     40  O   UNL d   1      20.963 -10.819  -0.230 -0.08 +0.01    -0.303    18.478
ATOM     41  H   UNL d   1      20.798 -10.867  -1.198 -0.06 -0.03    +0.222    18.478
ATOM     42  O   UNL d   1      18.943 -15.603  -0.075 -0.04 +0.01    -0.278    18.478
ATOM     43  P   UNL d   1      19.799 -16.331  -1.207 +0.01 +0.01    +0.473    18.478
ATOM     44  O   UNL d   1      19.095 -16.706  -2.465 -0.00 -0.00    -0.228    18.478
ATOM     45  O   UNL d   1      21.020 -15.332  -1.418 -0.00 -0.01    -0.303    18.478
ATOM     46  H   UNL d   1      20.806 -14.433  -1.098 +0.03 +0.00    +0.222    18.478
ATOM     47  O   UNL d   1      20.498 -17.538  -0.418 +0.00 -0.01    -0.303    18.478
ATOM     48  H   UNL d   1      20.977 -18.107  -1.057 +0.00 +0.01    +0.222    18.478
TER
ENDMDL
MODEL       38
USER    Run = 38
USER    Cluster Rank = 21
USER    Number of conformations in this cluster = 1
USER  
USER    RMSD from reference structure       = 14.941 A
USER  
USER    Estimated Free Energy of Binding    =   +1.80 kcal/mol  [=(1)+(2)+(3)-(4)]
USER    
USER    (1) Final Intermolecular Energy     =   -5.36 kcal/mol
USER        vdW + Hbond + desolv Energy     =   -4.72 kcal/mol
USER        Electrostatic Energy            =   -0.65 kcal/mol
USER    (2) Final Total Internal Energy     =  -13.97 kcal/mol
USER    (3) Torsional Free Energy           =   +7.16 kcal/mol
USER    (4) Unbound System's Energy  [=(2)] =  -13.97 kcal/mol
USER    
USER    
USER  
USER    DPF = D:/Protein_go_brrr/autodock/final/mut_D99N/IHP/dock.dpf
USER    NEWDPF move	IHP_ideal_opt.pdbqt
USER    NEWDPF about	0.035000 0.082000 -0.065000
USER    NEWDPF tran0	-3.750893 -7.755846 15.321605
USER    NEWDPF axisangle0	0.959058 -0.227846 0.168210 157.782100
USER    NEWDPF quaternion0	0.941087 -0.223577 0.165058 0.192675
USER    NEWDPF dihe0	-117.59 17.90 79.20 134.90 16.31 -113.96 -12.68 -161.77 70.56 0.85 134.43 165.17 50.37 -79.38 -49.69 -43.27 130.84 -124.89 33.37 -7.47 -176.23 141.82 -9.94 176.87 
USER  
USER                              x       y       z    vdW   Elec        q     RMS 
ATOM      1  C   UNL d   1      -2.060  -7.401  15.301 -0.06 +0.02    +0.194    14.941
ATOM      2  C   UNL d   1      -2.975  -6.239  15.694 -0.11 +0.05    +0.194    14.941
ATOM      3  C   UNL d   1      -4.210  -6.162  14.794 -0.16 +0.03    +0.194    14.941
ATOM      4  C   UNL d   1      -4.967  -7.484  14.696 -0.06 +0.02    +0.194    14.941
ATOM      5  C   UNL d   1      -4.077  -8.689  14.419 -0.06 -0.00    +0.194    14.941
ATOM      6  C   UNL d   1      -2.810  -8.734  15.277 -0.03 +0.00    +0.194    14.941
ATOM      7  O   UNL d   1      -1.030  -7.510  16.286 -0.02 -0.05    -0.278    14.941
ATOM      8  P   UNL d   1       0.312  -6.669  16.077 -0.05 +0.17    +0.473    14.941
ATOM      9  O   UNL d   1       0.416  -5.432  16.898 -0.68 -0.27    -0.228    14.941
ATOM     10  O   UNL d   1       1.476  -7.719  16.373 -0.01 -0.03    -0.303    14.941
ATOM     11  H   UNL d   1       1.666  -8.233  15.566 +0.05 -0.01    +0.222    14.941
ATOM     12  O   UNL d   1       0.435  -6.471  14.506 -0.10 -0.06    -0.303    14.941
ATOM     13  H   UNL d   1      -0.002  -7.187  13.992 +0.09 +0.01    +0.222    14.941
ATOM     14  O   UNL d   1      -3.407  -6.422  17.048 -0.04 -0.07    -0.278    14.941
ATOM     15  P   UNL d   1      -3.106  -5.220  18.063 -0.08 +0.20    +0.473    14.941
ATOM     16  O   UNL d   1      -1.975  -4.307  17.707 -0.19 -0.26    -0.228    14.941
ATOM     17  O   UNL d   1      -4.500  -4.458  18.186 -0.11 -0.10    -0.303    14.941
ATOM     18  H   UNL d   1      -5.102  -4.708  17.459 +0.06 +0.06    +0.222    14.941
ATOM     19  O   UNL d   1      -2.999  -5.922  19.487 -0.01 -0.08    -0.303    14.941
ATOM     20  H   UNL d   1      -2.156  -6.400  19.591 +0.02 +0.06    +0.222    14.941
ATOM     21  O   UNL d   1      -1.941  -9.692  14.678 -0.04 +0.03    -0.278    14.941
ATOM     22  P   UNL d   1      -1.042  -9.274  13.428 -0.03 -0.11    +0.473    14.941
ATOM     23  O   UNL d   1      -1.440  -8.066  12.647 -0.08 +0.04    -0.228    14.941
ATOM     24  O   UNL d   1       0.408  -9.200  14.079 -0.07 +0.04    -0.303    14.941
ATOM     25  H   UNL d   1       0.349  -8.649  14.900 +0.06 -0.01    +0.222    14.941
ATOM     26  O   UNL d   1      -0.967 -10.648  12.606 -0.08 +0.16    -0.303    14.941
ATOM     27  H   UNL d   1      -1.838 -10.826  12.196 -0.41 -0.31    +0.222    14.941
ATOM     28  O   UNL d   1      -5.121  -5.250  15.394 -0.18 -0.05    -0.278    14.941
ATOM     29  P   UNL d   1      -6.451  -5.782  16.090 -0.07 +0.07    +0.473    14.941
ATOM     30  O   UNL d   1      -7.477  -6.336  15.171 -0.07 -0.03    -0.228    14.941
ATOM     31  O   UNL d   1      -5.821  -6.785  17.166 -0.02 -0.04    -0.303    14.941
ATOM     32  H   UNL d   1      -5.001  -6.380  17.532 +0.04 +0.04    +0.222    14.941
ATOM     33  O   UNL d   1      -6.882  -4.536  16.983 -0.12 -0.06    -0.303    14.941
ATOM     34  H   UNL d   1      -6.638  -4.715  17.924 +0.05 +0.04    +0.222    14.941
ATOM     35  O   UNL d   1      -4.856  -9.833  14.763 -0.02 -0.01    -0.278    14.941
ATOM     36  P   UNL d   1      -5.176 -10.948  13.668 -0.06 +0.04    +0.473    14.941
ATOM     37  O   UNL d   1      -5.905 -12.154  14.168 -0.01 -0.03    -0.228    14.941
ATOM     38  O   UNL d   1      -5.971 -10.110  12.572 -0.52 -0.18    -0.303    14.941
ATOM     39  H   UNL d   1      -6.032  -9.175  12.864 +0.05 +0.07    +0.222    14.941
ATOM     40  O   UNL d   1      -3.751 -11.190  13.004 +0.01 +0.15    -0.303    14.941
ATOM     41  H   UNL d   1      -3.262 -10.347  12.874 -0.53 -0.22    +0.222    14.941
ATOM     42  O   UNL d   1      -5.869  -7.365  13.591 -0.08 -0.04    -0.278    14.941
ATOM     43  P   UNL d   1      -5.272  -7.222  12.119 -0.22 +0.06    +0.473    14.941
ATOM     44  O   UNL d   1      -4.772  -5.881  11.708 -0.37 -0.02    -0.228    14.941
ATOM     45  O   UNL d   1      -4.168  -8.368  12.078 -0.20 +0.07    -0.303    14.941
ATOM     46  H   UNL d   1      -4.566  -9.253  12.207 -0.19 -0.04    +0.222    14.941
ATOM     47  O   UNL d   1      -6.423  -7.845  11.194 -0.07 -0.14    -0.303    14.941
ATOM     48  H   UNL d   1      -7.041  -8.361  11.752 +0.06 +0.11    +0.222    14.941
TER
ENDMDL
MODEL       93
USER    Run = 93
USER    Cluster Rank = 22
USER    Number of conformations in this cluster = 1
USER  
USER    RMSD from reference structure       = 14.591 A
USER  
USER    Estimated Free Energy of Binding    =   +2.00 kcal/mol  [=(1)+(2)+(3)-(4)]
USER    
USER    (1) Final Intermolecular Energy     =   -5.16 kcal/mol
USER        vdW + Hbond + desolv Energy     =   -4.93 kcal/mol
USER        Electrostatic Energy            =   -0.23 kcal/mol
USER    (2) Final Total Internal Energy     =  -13.12 kcal/mol
USER    (3) Torsional Free Energy           =   +7.16 kcal/mol
USER    (4) Unbound System's Energy  [=(2)] =  -13.12 kcal/mol
USER    
USER    
USER  
USER    DPF = D:/Protein_go_brrr/autodock/final/mut_D99N/IHP/dock.dpf
USER    NEWDPF move	IHP_ideal_opt.pdbqt
USER    NEWDPF about	0.035000 0.082000 -0.065000
USER    NEWDPF tran0	-13.501479 1.737080 11.232680
USER    NEWDPF axisangle0	-0.474525 0.868660 -0.142326 -67.783698
USER    NEWDPF quaternion0	-0.264608 0.484388 -0.079365 -0.830092
USER    NEWDPF dihe0	100.81 167.57 19.11 123.77 56.90 -164.36 86.14 22.99 -7.52 37.97 -179.54 -172.04 -27.76 -24.77 122.21 43.01 166.44 77.40 31.72 -43.36 -18.35 -60.48 -180.00 20.28 
USER  
USER                              x       y       z    vdW   Elec        q     RMS 
ATOM      1  C   UNL d   1     -12.072   0.785  11.045 -0.23 +0.07    +0.194    14.591
ATOM      2  C   UNL d   1     -12.931   0.454  12.267 -0.16 +0.09    +0.194    14.591
ATOM      3  C   UNL d   1     -13.425   1.720  12.972 -0.11 +0.15    +0.194    14.591
ATOM      4  C   UNL d   1     -14.116   2.702  12.029 -0.22 +0.11    +0.194    14.591
ATOM      5  C   UNL d   1     -13.347   2.973  10.742 -0.22 +0.08    +0.194    14.591
ATOM      6  C   UNL d   1     -12.800   1.712  10.070 -0.17 +0.06    +0.194    14.591
ATOM      7  O   UNL d   1     -11.798  -0.434  10.350 -0.12 -0.09    -0.278    14.591
ATOM      8  P   UNL d   1     -10.479  -1.247  10.736 -0.24 +0.13    +0.473    14.591
ATOM      9  O   UNL d   1      -9.958  -0.992  12.107 -0.36 -0.07    -0.228    14.591
ATOM     10  O   UNL d   1     -10.879  -2.772  10.491 -0.13 -0.08    -0.303    14.591
ATOM     11  H   UNL d   1     -11.664  -2.994  11.026 +0.07 +0.05    +0.222    14.591
ATOM     12  O   UNL d   1      -9.462  -0.975   9.546 -0.33 -0.07    -0.303    14.591
ATOM     13  H   UNL d   1      -8.615  -0.574   9.846 -0.40 +0.01    +0.222    14.591
ATOM     14  O   UNL d   1     -14.069  -0.307  11.846 -0.03 -0.09    -0.278    14.591
ATOM     15  P   UNL d   1     -13.884  -1.897  11.785 +0.01 +0.12    +0.473    14.591
ATOM     16  O   UNL d   1     -12.927  -2.500  12.765 -0.03 -0.05    -0.228    14.591
ATOM     17  O   UNL d   1     -15.365  -2.465  11.938 -0.00 -0.06    -0.303    14.591
ATOM     18  H   UNL d   1     -15.666  -2.417  12.866 +0.01 +0.04    +0.222    14.591
ATOM     19  O   UNL d   1     -13.582  -2.203  10.253 -0.01 -0.08    -0.303    14.591
ATOM     20  H   UNL d   1     -12.743  -1.798   9.964 +0.06 +0.07    +0.222    14.591
ATOM     21  O   UNL d   1     -11.842   2.141   9.106 -0.02 -0.07    -0.278    14.591
ATOM     22  P   UNL d   1     -12.047   1.773   7.568 -0.12 +0.14    +0.473    14.591
ATOM     23  O   UNL d   1     -11.463   2.684   6.541 -0.25 -0.04    -0.228    14.591
ATOM     24  O   UNL d   1     -11.506   0.276   7.516 -0.55 -0.18    -0.303    14.591
ATOM     25  H   UNL d   1     -11.075   0.074   8.385 +0.10 +0.10    +0.222    14.591
ATOM     26  O   UNL d   1     -13.633   1.554   7.494 -0.03 -0.10    -0.303    14.591
ATOM     27  H   UNL d   1     -14.057   2.018   8.244 +0.05 +0.06    +0.222    14.591
ATOM     28  O   UNL d   1     -14.422   1.328  13.906 -0.10 -0.21    -0.278    14.591
ATOM     29  P   UNL d   1     -14.142   0.143  14.933 -0.03 +0.28    +0.473    14.591
ATOM     30  O   UNL d   1     -12.714  -0.224  15.113 -0.10 -0.14    -0.228    14.591
ATOM     31  O   UNL d   1     -14.917   0.698  16.218 -0.06 -0.18    -0.303    14.591
ATOM     32  H   UNL d   1     -15.410  -0.047  16.634 +0.01 +0.08    +0.222    14.591
ATOM     33  O   UNL d   1     -15.116  -0.998  14.400 -0.01 -0.09    -0.303    14.591
ATOM     34  H   UNL d   1     -14.680  -1.468  13.648 +0.02 +0.06    +0.222    14.591
ATOM     35  O   UNL d   1     -14.290   3.553   9.843 -0.34 -0.12    -0.278    14.591
ATOM     36  P   UNL d   1     -15.710   2.864   9.612 -0.02 +0.12    +0.473    14.591
ATOM     37  O   UNL d   1     -16.304   3.051   8.252 -0.01 -0.05    -0.228    14.591
ATOM     38  O   UNL d   1     -15.403   1.348   9.990 -0.01 -0.08    -0.303    14.591
ATOM     39  H   UNL d   1     -14.929   0.921   9.243 +0.03 +0.06    +0.222    14.591
ATOM     40  O   UNL d   1     -16.554   3.403  10.848 -0.03 -0.08    -0.303    14.591
ATOM     41  H   UNL d   1     -16.005   3.950  11.453 +0.04 +0.08    +0.222    14.591
ATOM     42  O   UNL d   1     -14.217   3.947  12.729 -0.56 -0.25    -0.278    14.591
ATOM     43  P   UNL d   1     -15.522   4.239  13.598 -0.12 +0.36    +0.473    14.591
ATOM     44  O   UNL d   1     -15.331   4.552  15.042 -0.18 -0.26    -0.228    14.591
ATOM     45  O   UNL d   1     -16.240   5.394  12.772 -0.08 -0.13    -0.303    14.591
ATOM     46  H   UNL d   1     -17.039   5.063  12.314 +0.03 +0.07    +0.222    14.591
ATOM     47  O   UNL d   1     -16.462   2.980  13.282 -0.03 -0.13    -0.303    14.591
ATOM     48  H   UNL d   1     -15.961   2.329  12.749 +0.04 +0.09    +0.222    14.591
TER
ENDMDL
MODEL       23
USER    Run = 23
USER    Cluster Rank = 23
USER    Number of conformations in this cluster = 1
USER  
USER    RMSD from reference structure       = 10.106 A
USER  
USER    Estimated Free Energy of Binding    =   +2.00 kcal/mol  [=(1)+(2)+(3)-(4)]
USER    
USER    (1) Final Intermolecular Energy     =   -5.16 kcal/mol
USER        vdW + Hbond + desolv Energy     =   -4.96 kcal/mol
USER        Electrostatic Energy            =   -0.20 kcal/mol
USER    (2) Final Total Internal Energy     =  -14.76 kcal/mol
USER    (3) Torsional Free Energy           =   +7.16 kcal/mol
USER    (4) Unbound System's Energy  [=(2)] =  -14.76 kcal/mol
USER    
USER    
USER  
USER    DPF = D:/Protein_go_brrr/autodock/final/mut_D99N/IHP/dock.dpf
USER    NEWDPF move	IHP_ideal_opt.pdbqt
USER    NEWDPF about	0.035000 0.082000 -0.065000
USER    NEWDPF tran0	9.749549 7.499456 -4.465838
USER    NEWDPF axisangle0	0.506349 -0.758144 0.410887 122.298500
USER    NEWDPF quaternion0	0.443501 -0.664043 0.359888 0.482530
USER    NEWDPF dihe0	129.71 42.01 163.05 128.13 26.92 -102.57 -24.43 -143.08 68.57 85.11 19.67 -168.24 -34.45 78.30 -55.26 -49.32 116.40 147.60 51.94 9.18 179.94 10.45 -6.69 -10.56 
USER  
USER                              x       y       z    vdW   Elec        q     RMS 
ATOM      1  C   UNL d   1      10.547   5.978  -4.282 -0.18 +0.01    +0.194    10.106
ATOM      2  C   UNL d   1      10.563   6.886  -3.051 -0.11 +0.02    +0.194    10.106
ATOM      3  C   UNL d   1      10.861   8.340  -3.422 -0.04 +0.03    +0.194    10.106
ATOM      4  C   UNL d   1       9.951   8.878  -4.524 -0.08 +0.05    +0.194    10.106
ATOM      5  C   UNL d   1       9.815   7.950  -5.725 -0.11 +0.05    +0.194    10.106
ATOM      6  C   UNL d   1       9.578   6.485  -5.351 -0.11 +0.02    +0.194    10.106
ATOM      7  O   UNL d   1      10.095   4.684  -3.877 -0.28 +0.02    -0.278    10.106
ATOM      8  P   UNL d   1      11.063   3.790  -2.974 -0.25 -0.01    +0.473    10.106
ATOM      9  O   UNL d   1      12.170   4.532  -2.311 -0.13 -0.00    -0.228    10.106
ATOM     10  O   UNL d   1      10.079   3.076  -1.941 -0.35 +0.04    -0.303    10.106
ATOM     11  H   UNL d   1       9.295   3.637  -1.795 -0.36 -0.05    +0.222    10.106
ATOM     12  O   UNL d   1      11.500   2.581  -3.908 -0.71 -0.01    -0.303    10.106
ATOM     13  H   UNL d   1      11.066   2.600  -4.790 -0.36 -0.08    +0.222    10.106
ATOM     14  O   UNL d   1       9.280   6.831  -2.414 -0.14 -0.06    -0.278    10.106
ATOM     15  P   UNL d   1       9.276   6.820  -0.813 -0.12 +0.05    +0.473    10.106
ATOM     16  O   UNL d   1       8.312   7.743  -0.136 -0.27 -0.01    -0.228    10.106
ATOM     17  O   UNL d   1       9.034   5.291  -0.436 +0.01 +0.01    -0.303    10.106
ATOM     18  H   UNL d   1       9.797   4.740  -0.694 +0.02 -0.03    +0.222    10.106
ATOM     19  O   UNL d   1      10.804   7.009  -0.411 -0.07 -0.01    -0.303    10.106
ATOM     20  H   UNL d   1      11.128   7.900  -0.636 +0.05 +0.01    +0.222    10.106
ATOM     21  O   UNL d   1       9.815   5.716  -6.529 -0.18 -0.01    -0.278    10.106
ATOM     22  P   UNL d   1      11.313   5.415  -6.990 -0.07 +0.03    +0.473    10.106
ATOM     23  O   UNL d   1      12.385   6.360  -6.563 -0.02 -0.01    -0.228    10.106
ATOM     24  O   UNL d   1      11.510   3.915  -6.496 -0.12 +0.01    -0.303    10.106
ATOM     25  H   UNL d   1      11.068   3.820  -5.614 -0.06 -0.05    +0.222    10.106
ATOM     26  O   UNL d   1      11.134   5.223  -8.571 -0.09 -0.04    -0.303    10.106
ATOM     27  H   UNL d   1      11.135   6.101  -9.004 +0.03 +0.03    +0.222    10.106
ATOM     28  O   UNL d   1      10.584   9.139  -2.280 -0.02 -0.04    -0.278    10.106
ATOM     29  P   UNL d   1      11.727  10.038  -1.630 +0.01 +0.04    +0.473    10.106
ATOM     30  O   UNL d   1      12.743   9.305  -0.833 -0.00 -0.01    -0.228    10.106
ATOM     31  O   UNL d   1      12.245  10.814  -2.930 +0.01 -0.02    -0.303    10.106
ATOM     32  H   UNL d   1      11.505  10.871  -3.578 +0.01 +0.03    +0.222    10.106
ATOM     33  O   UNL d   1      10.882  11.153  -0.869 -0.01 -0.03    -0.303    10.106
ATOM     34  H   UNL d   1      10.644  11.868  -1.509 +0.02 +0.02    +0.222    10.106
ATOM     35  O   UNL d   1       8.658   8.396  -6.429 -0.24 -0.18    -0.278    10.106
ATOM     36  P   UNL d   1       8.760   8.800  -7.969 -0.04 +0.21    +0.473    10.106
ATOM     37  O   UNL d   1       7.466   8.818  -8.718 -0.12 -0.14    -0.228    10.106
ATOM     38  O   UNL d   1       9.488  10.215  -7.887 -0.02 -0.09    -0.303    10.106
ATOM     39  H   UNL d   1       9.641  10.443  -6.945 +0.02 +0.08    +0.222    10.106
ATOM     40  O   UNL d   1       9.891   7.819  -8.504 -0.02 -0.06    -0.303    10.106
ATOM     41  H   UNL d   1       9.772   6.905  -8.162 +0.05 +0.04    +0.222    10.106
ATOM     42  O   UNL d   1      10.545  10.092  -4.996 -0.01 -0.06    -0.278    10.106
ATOM     43  P   UNL d   1       9.700  11.443  -4.921 -0.01 +0.14    +0.473    10.106
ATOM     44  O   UNL d   1      10.211  12.615  -5.685 +0.00 -0.04    -0.228    10.106
ATOM     45  O   UNL d   1       8.244  10.969  -5.353 -0.55 -0.26    -0.303    10.106
ATOM     46  H   UNL d   1       8.261  10.495  -6.208 +0.03 +0.22    +0.222    10.106
ATOM     47  O   UNL d   1       9.515  11.672  -3.345 -0.01 -0.07    -0.303    10.106
ATOM     48  H   UNL d   1      10.093  11.048  -2.858 +0.03 +0.04    +0.222    10.106
TER
ENDMDL
MODEL       39
USER    Run = 39
USER    Cluster Rank = 24
USER    Number of conformations in this cluster = 1
USER  
USER    RMSD from reference structure       = 16.548 A
USER  
USER    Estimated Free Energy of Binding    =   +2.01 kcal/mol  [=(1)+(2)+(3)-(4)]
USER    
USER    (1) Final Intermolecular Energy     =   -5.15 kcal/mol
USER        vdW + Hbond + desolv Energy     =   -4.54 kcal/mol
USER        Electrostatic Energy            =   -0.61 kcal/mol
USER    (2) Final Total Internal Energy     =  -14.69 kcal/mol
USER    (3) Torsional Free Energy           =   +7.16 kcal/mol
USER    (4) Unbound System's Energy  [=(2)] =  -14.69 kcal/mol
USER    
USER    
USER  
USER    DPF = D:/Protein_go_brrr/autodock/final/mut_D99N/IHP/dock.dpf
USER    NEWDPF move	IHP_ideal_opt.pdbqt
USER    NEWDPF about	0.035000 0.082000 -0.065000
USER    NEWDPF tran0	15.656494 -12.267486 6.288753
USER    NEWDPF axisangle0	-0.832764 -0.547689 0.080881 -177.950254
USER    NEWDPF quaternion0	-0.832631 -0.547601 0.080868 -0.017886
USER    NEWDPF dihe0	-165.47 -3.56 44.11 88.76 127.89 -140.86 -41.92 -89.72 4.02 14.61 148.51 122.58 32.14 -51.99 68.95 -60.67 175.70 -163.95 -137.54 -8.62 24.53 -2.18 -178.41 14.28 
USER  
USER                              x       y       z    vdW   Elec        q     RMS 
ATOM      1  C   UNL d   1      15.212 -10.813   5.470 -0.32 -0.12    +0.194    16.548
ATOM      2  C   UNL d   1      14.055 -11.612   6.072 -0.26 -0.11    +0.194    16.548
ATOM      3  C   UNL d   1      14.209 -13.112   5.817 -0.08 -0.15    +0.194    16.548
ATOM      4  C   UNL d   1      15.570 -13.658   6.242 -0.06 -0.12    +0.194    16.548
ATOM      5  C   UNL d   1      16.751 -12.826   5.758 -0.08 -0.12    +0.194    16.548
ATOM      6  C   UNL d   1      16.570 -11.320   5.958 -0.21 -0.08    +0.194    16.548
ATOM      7  O   UNL d   1      15.086  -9.454   5.896 +0.04 +0.14    -0.278    16.548
ATOM      8  P   UNL d   1      15.992  -8.953   7.113 -0.15 -0.14    +0.473    16.548
ATOM      9  O   UNL d   1      17.369  -8.529   6.742 -0.24 +0.01    -0.228    16.548
ATOM     10  O   UNL d   1      15.133  -7.786   7.779 -0.14 +0.15    -0.303    16.548
ATOM     11  H   UNL d   1      14.186  -8.016   7.744 -0.20 -0.20    +0.222    16.548
ATOM     12  O   UNL d   1      15.891 -10.104   8.204 -0.06 +0.07    -0.303    16.548
ATOM     13  H   UNL d   1      14.965 -10.385   8.383 +0.04 -0.07    +0.222    16.548
ATOM     14  O   UNL d   1      14.022 -11.390   7.488 -0.10 +0.11    -0.278    16.548
ATOM     15  P   UNL d   1      12.655 -10.813   8.090 -0.04 -0.19    +0.473    16.548
ATOM     16  O   UNL d   1      11.520 -10.638   7.132 -0.27 +0.09    -0.228    16.548
ATOM     17  O   UNL d   1      12.307 -11.809   9.284 -0.02 +0.08    -0.303    16.548
ATOM     18  H   UNL d   1      12.325 -12.738   8.984 +0.04 -0.05    +0.222    16.548
ATOM     19  O   UNL d   1      13.092  -9.505   8.883 -0.08 +0.14    -0.303    16.548
ATOM     20  H   UNL d   1      13.886  -9.095   8.492 -0.35 -0.12    +0.222    16.548
ATOM     21  O   UNL d   1      17.566 -10.677   5.165 -0.28 +0.06    -0.278    16.548
ATOM     22  P   UNL d   1      19.073 -10.615   5.684 -0.17 +0.06    +0.473    16.548
ATOM     23  O   UNL d   1      20.045 -11.610   5.145 -0.15 -0.05    -0.228    16.548
ATOM     24  O   UNL d   1      19.451  -9.094   5.408 -0.80 -0.14    -0.303    16.548
ATOM     25  H   UNL d   1      18.847  -8.524   5.948 +0.07 +0.07    +0.222    16.548
ATOM     26  O   UNL d   1      18.870 -10.622   7.275 -0.03 -0.02    -0.303    16.548
ATOM     27  H   UNL d   1      18.209 -11.304   7.512 +0.05 -0.01    +0.222    16.548
ATOM     28  O   UNL d   1      13.261 -13.785   6.635 -0.07 +0.10    -0.278    16.548
ATOM     29  P   UNL d   1      11.982 -14.476   5.983 -0.11 -0.10    +0.473    16.548
ATOM     30  O   UNL d   1      10.805 -13.591   5.790 -0.24 +0.05    -0.228    16.548
ATOM     31  O   UNL d   1      12.644 -15.102   4.667 -0.21 +0.05    -0.303    16.548
ATOM     32  H   UNL d   1      13.623 -15.016   4.737 -0.06 -0.12    +0.222    16.548
ATOM     33  O   UNL d   1      11.779 -15.751   6.915 -0.02 +0.03    -0.303    16.548
ATOM     34  H   UNL d   1      12.660 -16.044   7.255 +0.03 -0.02    +0.222    16.548
ATOM     35  O   UNL d   1      17.861 -13.225   6.561 -0.03 +0.05    -0.278    16.548
ATOM     36  P   UNL d   1      17.713 -13.324   8.146 +0.01 -0.04    +0.473    16.548
ATOM     37  O   UNL d   1      18.884 -12.831   8.935 -0.00 -0.00    -0.228    16.548
ATOM     38  O   UNL d   1      16.366 -12.513   8.399 -0.00 +0.05    -0.303    16.548
ATOM     39  H   UNL d   1      16.509 -11.571   8.167 +0.04 -0.04    +0.222    16.548
ATOM     40  O   UNL d   1      17.290 -14.843   8.354 +0.00 +0.03    -0.303    16.548
ATOM     41  H   UNL d   1      16.824 -15.202   7.567 +0.01 -0.03    +0.222    16.548
ATOM     42  O   UNL d   1      15.700 -14.956   5.651 -0.07 +0.16    -0.278    16.548
ATOM     43  P   UNL d   1      15.340 -16.240   6.526 -0.00 -0.09    +0.473    16.548
ATOM     44  O   UNL d   1      16.431 -17.220   6.787 -0.00 +0.02    -0.228    16.548
ATOM     45  O   UNL d   1      14.710 -15.603   7.840 -0.00 +0.04    -0.303    16.548
ATOM     46  H   UNL d   1      13.801 -15.278   7.680 +0.02 -0.04    +0.222    16.548
ATOM     47  O   UNL d   1      14.042 -16.830   5.794 -0.02 +0.03    -0.303    16.548
ATOM     48  H   UNL d   1      13.339 -16.147   5.784 +0.04 -0.03    +0.222    16.548
TER
ENDMDL
MODEL       78
USER    Run = 78
USER    Cluster Rank = 25
USER    Number of conformations in this cluster = 2
USER  
USER    RMSD from reference structure       = 18.267 A
USER  
USER    Estimated Free Energy of Binding    =   +2.06 kcal/mol  [=(1)+(2)+(3)-(4)]
USER    
USER    (1) Final Intermolecular Energy     =   -5.10 kcal/mol
USER        vdW + Hbond + desolv Energy     =   -4.87 kcal/mol
USER        Electrostatic Energy            =   -0.23 kcal/mol
USER    (2) Final Total Internal Energy     =  -13.57 kcal/mol
USER    (3) Torsional Free Energy           =   +7.16 kcal/mol
USER    (4) Unbound System's Energy  [=(2)] =  -13.57 kcal/mol
USER    
USER    
USER  
USER    DPF = D:/Protein_go_brrr/autodock/final/mut_D99N/IHP/dock.dpf
USER    NEWDPF move	IHP_ideal_opt.pdbqt
USER    NEWDPF about	0.035000 0.082000 -0.065000
USER    NEWDPF tran0	-13.824068 12.630718 -10.615063
USER    NEWDPF axisangle0	0.091177 0.687660 -0.720285 -132.626501
USER    NEWDPF quaternion0	0.083495 0.629729 -0.659605 -0.401736
USER    NEWDPF dihe0	58.20 141.86 101.46 180.00 32.40 147.02 -102.58 -16.43 -23.94 91.76 105.41 120.06 -45.32 -142.31 178.75 -151.29 -31.51 95.90 -29.22 -1.23 -14.11 9.57 -180.00 -12.37 
USER  
USER                              x       y       z    vdW   Elec        q     RMS 
ATOM      1  C   UNL d   1     -14.906  11.285 -10.556 +0.07 -0.11    +0.194    18.267
ATOM      2  C   UNL d   1     -14.735  12.054  -9.245 -0.12 -0.08    +0.194    18.267
ATOM      3  C   UNL d   1     -13.269  12.405  -8.981 -0.22 -0.05    +0.194    18.267
ATOM      4  C   UNL d   1     -12.599  13.112 -10.156 -0.20 -0.05    +0.194    18.267
ATOM      5  C   UNL d   1     -12.840  12.443 -11.503 -0.17 -0.08    +0.194    18.267
ATOM      6  C   UNL d   1     -14.296  12.036 -11.741 -0.18 -0.09    +0.194    18.267
ATOM      7  O   UNL d   1     -16.306  11.149 -10.814 -0.10 +0.17    -0.278    18.267
ATOM      8  P   UNL d   1     -16.802   9.887 -11.658 -0.08 -0.37    +0.473    18.267
ATOM      9  O   UNL d   1     -15.749   8.885 -11.975 -0.21 +0.22    -0.228    18.267
ATOM     10  O   UNL d   1     -17.999   9.287 -10.790 -0.10 +0.37    -0.303    18.267
ATOM     11  H   UNL d   1     -17.678   8.525 -10.273 -0.40 -0.54    +0.222    18.267
ATOM     12  O   UNL d   1     -17.572  10.502 -12.905 -0.02 +0.14    -0.303    18.267
ATOM     13  H   UNL d   1     -17.012  10.565 -13.711 +0.04 -0.10    +0.222    18.267
ATOM     14  O   UNL d   1     -15.490  13.270  -9.314 -0.05 +0.08    -0.278    18.267
ATOM     15  P   UNL d   1     -16.457  13.583  -8.076 -0.06 -0.11    +0.473    18.267
ATOM     16  O   UNL d   1     -17.835  13.000  -8.136 -0.08 +0.06    -0.228    18.267
ATOM     17  O   UNL d   1     -15.633  13.090  -6.806 -0.20 +0.07    -0.303    18.267
ATOM     18  H   UNL d   1     -14.732  12.811  -7.058 +0.09 -0.05    +0.222    18.267
ATOM     19  O   UNL d   1     -16.389  15.163  -7.909 -0.02 +0.04    -0.303    18.267
ATOM     20  H   UNL d   1     -17.266  15.575  -8.011 +0.02 -0.03    +0.222    18.267
ATOM     21  O   UNL d   1     -14.297  11.140 -12.850 -0.23 +0.19    -0.278    18.267
ATOM     22  P   UNL d   1     -15.053  11.546 -14.195 -0.12 -0.32    +0.473    18.267
ATOM     23  O   UNL d   1     -15.609  10.456 -15.047 -0.12 +0.19    -0.228    18.267
ATOM     24  O   UNL d   1     -16.128  12.592 -13.662 -0.01 +0.11    -0.303    18.267
ATOM     25  H   UNL d   1     -16.409  12.309 -12.754 +0.04 -0.08    +0.222    18.267
ATOM     26  O   UNL d   1     -13.976  12.506 -14.895 -0.14 +0.23    -0.303    18.267
ATOM     27  H   UNL d   1     -13.417  12.919 -14.206 +0.05 -0.14    +0.222    18.267
ATOM     28  O   UNL d   1     -13.239  13.340  -7.910 -0.14 +0.05    -0.278    18.267
ATOM     29  P   UNL d   1     -12.458  12.997  -6.565 -0.25 -0.04    +0.473    18.267
ATOM     30  O   UNL d   1     -12.548  14.022  -5.493 -0.26 +0.01    -0.228    18.267
ATOM     31  O   UNL d   1     -13.073  11.555  -6.244 -0.82 +0.07    -0.303    18.267
ATOM     32  H   UNL d   1     -14.056  11.618  -6.279 -0.33 -0.07    +0.222    18.267
ATOM     33  O   UNL d   1     -11.002  12.647  -7.104 -0.10 +0.02    -0.303    18.267
ATOM     34  H   UNL d   1     -10.750  13.303  -7.799 +0.11 -0.01    +0.222    18.267
ATOM     35  O   UNL d   1     -12.512  13.422 -12.486 -0.12 +0.13    -0.278    18.267
ATOM     36  P   UNL d   1     -13.110  14.897 -12.384 -0.02 -0.11    +0.473    18.267
ATOM     37  O   UNL d   1     -13.754  15.243 -11.079 -0.02 +0.04    -0.228    18.267
ATOM     38  O   UNL d   1     -11.841  15.790 -12.744 -0.01 +0.05    -0.303    18.267
ATOM     39  H   UNL d   1     -11.390  16.055 -11.914 +0.02 -0.03    +0.222    18.267
ATOM     40  O   UNL d   1     -14.022  14.985 -13.684 -0.01 +0.08    -0.303    18.267
ATOM     41  H   UNL d   1     -14.624  14.212 -13.760 +0.03 -0.07    +0.222    18.267
ATOM     42  O   UNL d   1     -11.189  13.075  -9.913 -0.21 +0.05    -0.278    18.267
ATOM     43  P   UNL d   1     -10.376  14.447  -9.871 -0.07 -0.05    +0.473    18.267
ATOM     44  O   UNL d   1      -9.289  14.571  -8.861 -0.10 +0.01    -0.228    18.267
ATOM     45  O   UNL d   1      -9.887  14.609 -11.377 -0.07 +0.05    -0.303    18.267
ATOM     46  H   UNL d   1     -10.533  14.229 -12.006 +0.03 -0.06    +0.222    18.267
ATOM     47  O   UNL d   1     -11.532  15.554  -9.783 -0.02 +0.03    -0.303    18.267
ATOM     48  H   UNL d   1     -12.100  15.492 -10.579 +0.03 -0.03    +0.222    18.267
TER
ENDMDL
MODEL       95
USER    Run = 95
USER    Cluster Rank = 26
USER    Number of conformations in this cluster = 2
USER  
USER    RMSD from reference structure       = 12.798 A
USER  
USER    Estimated Free Energy of Binding    =   +2.15 kcal/mol  [=(1)+(2)+(3)-(4)]
USER    
USER    (1) Final Intermolecular Energy     =   -5.01 kcal/mol
USER        vdW + Hbond + desolv Energy     =   -4.62 kcal/mol
USER        Electrostatic Energy            =   -0.39 kcal/mol
USER    (2) Final Total Internal Energy     =  -13.30 kcal/mol
USER    (3) Torsional Free Energy           =   +7.16 kcal/mol
USER    (4) Unbound System's Energy  [=(2)] =  -13.30 kcal/mol
USER    
USER    
USER  
USER    DPF = D:/Protein_go_brrr/autodock/final/mut_D99N/IHP/dock.dpf
USER    NEWDPF move	IHP_ideal_opt.pdbqt
USER    NEWDPF about	0.035000 0.082000 -0.065000
USER    NEWDPF tran0	6.409255 13.820154 -4.942762
USER    NEWDPF axisangle0	-0.339728 0.587696 0.734301 -65.316434
USER    NEWDPF quaternion0	-0.183326 0.317137 0.396248 -0.841905
USER    NEWDPF dihe0	128.58 103.26 33.27 -43.12 -80.57 169.76 180.00 -39.34 68.48 -24.95 152.66 147.77 -34.14 -168.35 29.87 69.32 107.08 -126.92 30.95 -37.45 -180.00 -33.43 -45.52 155.26 
USER  
USER                              x       y       z    vdW   Elec        q     RMS 
ATOM      1  C   UNL d   1       8.020  14.404  -5.164 -0.01 +0.03    +0.194    12.798
ATOM      2  C   UNL d   1       7.901  13.012  -4.540 -0.06 +0.07    +0.194    12.798
ATOM      3  C   UNL d   1       6.798  12.958  -3.481 -0.10 +0.07    +0.194    12.798
ATOM      4  C   UNL d   1       5.455  13.482  -3.984 +0.03 +0.04    +0.194    12.798
ATOM      5  C   UNL d   1       5.543  14.815  -4.715 -0.08 +0.01    +0.194    12.798
ATOM      6  C   UNL d   1       6.685  14.890  -5.731 -0.03 +0.02    +0.194    12.798
ATOM      7  O   UNL d   1       8.943  14.327  -6.253 +0.00 -0.04    -0.278    12.798
ATOM      8  P   UNL d   1      10.485  14.627  -5.964 +0.01 +0.04    +0.473    12.798
ATOM      9  O   UNL d   1      10.883  14.561  -4.531 +0.00 -0.02    -0.228    12.798
ATOM     10  O   UNL d   1      11.262  13.577  -6.880 +0.00 -0.03    -0.303    12.798
ATOM     11  H   UNL d   1      10.715  12.777  -6.996 +0.01 +0.03    +0.222    12.798
ATOM     12  O   UNL d   1      10.785  16.000  -6.705 +0.00 -0.02    -0.303    12.798
ATOM     13  H   UNL d   1      10.210  16.737  -6.399 +0.00 +0.01    +0.222    12.798
ATOM     14  O   UNL d   1       7.593  12.064  -5.570 -0.40 -0.23    -0.278    12.798
ATOM     15  P   UNL d   1       8.833  11.298  -6.232 -0.03 +0.24    +0.473    12.798
ATOM     16  O   UNL d   1       9.124  11.605  -7.668 -0.03 -0.07    -0.228    12.798
ATOM     17  O   UNL d   1      10.056  11.635  -5.269 -0.00 -0.07    -0.303    12.798
ATOM     18  H   UNL d   1      10.240  12.594  -5.255 +0.01 +0.04    +0.222    12.798
ATOM     19  O   UNL d   1       8.576   9.764  -5.897 -0.46 -0.27    -0.303    12.798
ATOM     20  H   UNL d   1       9.143   9.454  -5.167 +0.04 +0.11    +0.222    12.798
ATOM     21  O   UNL d   1       6.850  16.267  -6.065 +0.00 -0.01    -0.278    12.798
ATOM     22  P   UNL d   1       7.609  17.241  -5.056 +0.01 +0.02    +0.473    12.798
ATOM     23  O   UNL d   1       9.025  16.929  -4.706 +0.00 -0.01    -0.228    12.798
ATOM     24  O   UNL d   1       7.389  18.659  -5.746 +0.00 -0.01    -0.303    12.798
ATOM     25  H   UNL d   1       8.190  19.216  -5.568 +0.00 +0.00    +0.222    12.798
ATOM     26  O   UNL d   1       6.580  17.306  -3.829 +0.00 -0.01    -0.303    12.798
ATOM     27  H   UNL d   1       5.771  16.807  -4.061 +0.02 +0.00    +0.222    12.798
ATOM     28  O   UNL d   1       6.575  11.590  -3.164 -0.51 -0.16    -0.278    12.798
ATOM     29  P   UNL d   1       7.590  10.808  -2.218 -0.13 +0.17    +0.473    12.798
ATOM     30  O   UNL d   1       8.045  11.551  -1.014 -0.44 -0.10    -0.228    12.798
ATOM     31  O   UNL d   1       6.759   9.463  -1.970 -0.67 -0.11    -0.303    12.798
ATOM     32  H   UNL d   1       6.710   9.298  -1.000 -0.41 -0.03    +0.222    12.798
ATOM     33  O   UNL d   1       8.714  10.343  -3.244 -0.09 -0.11    -0.303    12.798
ATOM     34  H   UNL d   1       8.660  10.905  -4.056 +0.05 +0.10    +0.222    12.798
ATOM     35  O   UNL d   1       4.324  14.938  -5.445 -0.11 +0.06    -0.278    12.798
ATOM     36  P   UNL d   1       3.021  15.530  -4.741 -0.06 -0.11    +0.473    12.798
ATOM     37  O   UNL d   1       2.056  16.224  -5.648 -0.07 +0.04    -0.228    12.798
ATOM     38  O   UNL d   1       2.428  14.241  -4.017 -0.12 +0.15    -0.303    12.798
ATOM     39  H   UNL d   1       2.996  13.467  -4.223 -0.45 -0.23    +0.222    12.798
ATOM     40  O   UNL d   1       3.637  16.386  -3.551 -0.03 +0.02    -0.303    12.798
ATOM     41  H   UNL d   1       4.079  15.816  -2.882 +0.06 -0.01    +0.222    12.798
ATOM     42  O   UNL d   1       4.632  13.688  -2.831 -0.18 -0.00    -0.278    12.798
ATOM     43  P   UNL d   1       5.264  14.396  -1.549 -0.14 +0.03    +0.473    12.798
ATOM     44  O   UNL d   1       6.075  13.551  -0.628 -0.19 -0.03    -0.228    12.798
ATOM     45  O   UNL d   1       6.062  15.618  -2.183 -0.03 -0.01    -0.303    12.798
ATOM     46  H   UNL d   1       5.464  16.361  -2.401 +0.04 +0.01    +0.222    12.798
ATOM     47  O   UNL d   1       4.008  15.137  -0.883 -0.18 -0.01    -0.303    12.798
ATOM     48  H   UNL d   1       3.396  15.431  -1.589 +0.08 +0.00    +0.222    12.798
TER
ENDMDL
MODEL       19
USER    Run = 19
USER    Cluster Rank = 27
USER    Number of conformations in this cluster = 1
USER  
USER    RMSD from reference structure       = 13.128 A
USER  
USER    Estimated Free Energy of Binding    =   +2.15 kcal/mol  [=(1)+(2)+(3)-(4)]
USER    
USER    (1) Final Intermolecular Energy     =   -5.00 kcal/mol
USER        vdW + Hbond + desolv Energy     =   -4.72 kcal/mol
USER        Electrostatic Energy            =   -0.28 kcal/mol
USER    (2) Final Total Internal Energy     =  -14.91 kcal/mol
USER    (3) Torsional Free Energy           =   +7.16 kcal/mol
USER    (4) Unbound System's Energy  [=(2)] =  -14.91 kcal/mol
USER    
USER    
USER  
USER    DPF = D:/Protein_go_brrr/autodock/final/mut_D99N/IHP/dock.dpf
USER    NEWDPF move	IHP_ideal_opt.pdbqt
USER    NEWDPF about	0.035000 0.082000 -0.065000
USER    NEWDPF tran0	1.404662 9.795915 -12.168646
USER    NEWDPF axisangle0	-0.460980 0.533476 -0.709155 -97.516799
USER    NEWDPF quaternion0	-0.346628 0.401140 -0.533239 -0.659236
USER    NEWDPF dihe0	174.20 -7.49 179.69 -17.48 22.65 133.96 -89.86 -22.92 -14.14 88.06 2.95 -128.46 76.39 171.86 -179.03 3.54 -34.17 -13.65 -15.05 21.97 -13.22 22.04 -179.45 -19.82 
USER  
USER                              x       y       z    vdW   Elec        q     RMS 
ATOM      1  C   UNL d   1       1.875   8.420 -11.236 -0.12 -0.00    +0.194    13.128
ATOM      2  C   UNL d   1       1.065   9.480 -10.488 -0.14 -0.04    +0.194    13.128
ATOM      3  C   UNL d   1       1.536  10.896 -10.826 -0.09 -0.05    +0.194    13.128
ATOM      4  C   UNL d   1       1.594  11.168 -12.327 -0.01 -0.01    +0.194    13.128
ATOM      5  C   UNL d   1       2.294  10.077 -13.129 -0.01 -0.00    +0.194    13.128
ATOM      6  C   UNL d   1       1.868   8.658 -12.747 -0.05 -0.00    +0.194    13.128
ATOM      7  O   UNL d   1       1.268   7.147 -11.003 -0.17 +0.03    -0.278    13.128
ATOM      8  P   UNL d   1       2.216   5.897 -10.704 -0.20 +0.02    +0.473    13.128
ATOM      9  O   UNL d   1       1.877   5.126  -9.477 -0.41 -0.03    -0.228    13.128
ATOM     10  O   UNL d   1       2.134   5.023 -12.037 -0.32 -0.02    -0.303    13.128
ATOM     11  H   UNL d   1       1.768   5.565 -12.761 -0.18 +0.03    +0.222    13.128
ATOM     12  O   UNL d   1       3.694   6.473 -10.775 -0.12 -0.06    -0.303    13.128
ATOM     13  H   UNL d   1       3.878   6.962 -11.609 +0.06 +0.03    +0.222    13.128
ATOM     14  O   UNL d   1      -0.315   9.358 -10.854 -0.08 +0.05    -0.278    13.128
ATOM     15  P   UNL d   1      -1.388   9.865  -9.779 -0.17 -0.11    +0.473    13.128
ATOM     16  O   UNL d   1      -2.536   8.950  -9.492 -0.26 +0.02    -0.228    13.128
ATOM     17  O   UNL d   1      -0.517  10.188  -8.484 -0.19 +0.27    -0.303    13.128
ATOM     18  H   UNL d   1      -0.132  11.084  -8.534 -0.46 -0.35    +0.222    13.128
ATOM     19  O   UNL d   1      -1.782  11.326 -10.271 -0.11 +0.06    -0.303    13.128
ATOM     20  H   UNL d   1      -1.093  11.979 -10.047 +0.07 -0.07    +0.222    13.128
ATOM     21  O   UNL d   1       2.830   7.772 -13.314 -0.04 -0.02    -0.278    13.128
ATOM     22  P   UNL d   1       2.384   6.738 -14.444 -0.05 +0.06    +0.473    13.128
ATOM     23  O   UNL d   1       3.099   5.431 -14.526 -0.46 -0.05    -0.228    13.128
ATOM     24  O   UNL d   1       0.818   6.627 -14.184 -0.19 -0.00    -0.303    13.128
ATOM     25  H   UNL d   1       0.672   6.557 -13.206 -0.47 -0.07    +0.222    13.128
ATOM     26  O   UNL d   1       2.437   7.651 -15.761 -0.01 -0.03    -0.303    13.128
ATOM     27  H   UNL d   1       2.085   8.540 -15.550 +0.01 +0.01    +0.222    13.128
ATOM     28  O   UNL d   1       0.567  11.803 -10.316 -0.09 +0.12    -0.278    13.128
ATOM     29  P   UNL d   1       1.021  13.075  -9.473 +0.02 -0.29    +0.473    13.128
ATOM     30  O   UNL d   1       2.359  12.977  -8.834 -0.13 +0.19    -0.228    13.128
ATOM     31  O   UNL d   1       0.823  14.223 -10.570 -0.02 +0.06    -0.303    13.128
ATOM     32  H   UNL d   1       1.100  13.870 -11.447 +0.02 -0.03    +0.222    13.128
ATOM     33  O   UNL d   1      -0.224  13.296  -8.505 -0.15 +0.21    -0.303    13.128
ATOM     34  H   UNL d   1      -0.589  12.415  -8.245 -0.23 -0.22    +0.222    13.128
ATOM     35  O   UNL d   1       1.903  10.282 -14.485 +0.00 -0.00    -0.278    13.128
ATOM     36  P   UNL d   1       0.365  10.483 -14.857 +0.01 +0.00    +0.473    13.128
ATOM     37  O   UNL d   1      -0.559  10.676 -13.698 -0.01 +0.01    -0.228    13.128
ATOM     38  O   UNL d   1       0.430  11.721 -15.856 +0.00 -0.00    -0.303    13.128
ATOM     39  H   UNL d   1       0.439  12.553 -15.336 +0.00 -0.00    +0.222    13.128
ATOM     40  O   UNL d   1       0.081   9.239 -15.807 -0.00 -0.01    -0.303    13.128
ATOM     41  H   UNL d   1       0.438   8.404 -15.431 +0.02 +0.01    +0.222    13.128
ATOM     42  O   UNL d   1       2.351  12.370 -12.502 -0.00 +0.01    -0.278    13.128
ATOM     43  P   UNL d   1       1.763  13.524 -13.434 +0.01 -0.01    +0.473    13.128
ATOM     44  O   UNL d   1       0.282  13.677 -13.485 +0.00 +0.01    -0.228    13.128
ATOM     45  O   UNL d   1       2.534  14.816 -12.917 +0.00 +0.01    -0.303    13.128
ATOM     46  H   UNL d   1       2.236  15.078 -12.023 +0.01 -0.01    +0.222    13.128
ATOM     47  O   UNL d   1       2.480  13.258 -14.842 +0.00 -0.00    -0.303    13.128
ATOM     48  H   UNL d   1       2.372  12.315 -15.087 +0.00 +0.00    +0.222    13.128
TER
ENDMDL
MODEL        7
USER    Run = 7
USER    Cluster Rank = 28
USER    Number of conformations in this cluster = 1
USER  
USER    RMSD from reference structure       = 19.660 A
USER  
USER    Estimated Free Energy of Binding    =   +2.22 kcal/mol  [=(1)+(2)+(3)-(4)]
USER    
USER    (1) Final Intermolecular Energy     =   -4.94 kcal/mol
USER        vdW + Hbond + desolv Energy     =   -4.63 kcal/mol
USER        Electrostatic Energy            =   -0.31 kcal/mol
USER    (2) Final Total Internal Energy     =  -14.34 kcal/mol
USER    (3) Torsional Free Energy           =   +7.16 kcal/mol
USER    (4) Unbound System's Energy  [=(2)] =  -14.34 kcal/mol
USER    
USER    
USER  
USER    DPF = D:/Protein_go_brrr/autodock/final/mut_D99N/IHP/dock.dpf
USER    NEWDPF move	IHP_ideal_opt.pdbqt
USER    NEWDPF about	0.035000 0.082000 -0.065000
USER    NEWDPF tran0	-10.365399 -3.418133 -19.289952
USER    NEWDPF axisangle0	0.600964 -0.035472 -0.798489 26.892994
USER    NEWDPF quaternion0	0.139746 -0.008249 -0.185678 0.972587
USER    NEWDPF dihe0	130.85 -4.84 43.11 44.48 111.95 -128.97 -3.99 -130.34 -18.12 98.70 41.50 -147.81 -33.85 -164.99 97.31 165.05 -30.08 144.13 27.82 -45.35 -29.18 -37.94 149.58 -5.69 
USER  
USER                              x       y       z    vdW   Elec        q     RMS 
ATOM      1  C   UNL d   1      -8.905  -3.543 -18.376 -0.18 +0.06    +0.194    19.660
ATOM      2  C   UNL d   1      -9.761  -4.810 -18.430 -0.14 +0.02    +0.194    19.660
ATOM      3  C   UNL d   1     -11.247  -4.497 -18.246 -0.10 +0.02    +0.194    19.660
ATOM      4  C   UNL d   1     -11.756  -3.415 -19.196 -0.02 +0.03    +0.194    19.660
ATOM      5  C   UNL d   1     -10.869  -2.178 -19.261 -0.06 +0.06    +0.194    19.660
ATOM      6  C   UNL d   1      -9.377  -2.493 -19.383 -0.09 +0.08    +0.194    19.660
ATOM      7  O   UNL d   1      -7.564  -3.896 -18.726 -0.13 -0.10    -0.278    19.660
ATOM      8  P   UNL d   1      -6.534  -4.223 -17.550 -0.29 +0.21    +0.473    19.660
ATOM      9  O   UNL d   1      -7.156  -4.531 -16.234 -0.71 -0.09    -0.228    19.660
ATOM     10  O   UNL d   1      -5.657  -5.425 -18.127 -0.24 -0.05    -0.303    19.660
ATOM     11  H   UNL d   1      -6.180  -5.927 -18.780 +0.02 +0.02    +0.222    19.660
ATOM     12  O   UNL d   1      -5.497  -3.020 -17.562 -0.27 -0.28    -0.303    19.660
ATOM     13  H   UNL d   1      -5.132  -2.834 -18.457 +0.10 +0.22    +0.222    19.660
ATOM     14  O   UNL d   1      -9.581  -5.441 -19.704 -0.04 -0.03    -0.278    19.660
ATOM     15  P   UNL d   1      -8.343  -6.447 -19.836 -0.06 +0.03    +0.473    19.660
ATOM     16  O   UNL d   1      -7.197  -5.995 -20.686 -0.06 -0.03    -0.228    19.660
ATOM     17  O   UNL d   1      -7.916  -6.737 -18.329 -0.05 +0.02    -0.303    19.660
ATOM     18  H   UNL d   1      -7.771  -5.905 -17.838 -0.33 -0.03    +0.222    19.660
ATOM     19  O   UNL d   1      -9.001  -7.834 -20.254 -0.03 -0.01    -0.303    19.660
ATOM     20  H   UNL d   1      -9.964  -7.835 -20.104 +0.03 +0.01    +0.222    19.660
ATOM     21  O   UNL d   1      -8.676  -1.286 -19.087 -0.13 -0.22    -0.278    19.660
ATOM     22  P   UNL d   1      -7.514  -0.787 -20.060 +0.01 +0.52    +0.473    19.660
ATOM     23  O   UNL d   1      -7.579   0.611 -20.576 -0.60 -0.35    -0.228    19.660
ATOM     24  O   UNL d   1      -6.211  -1.126 -19.212 -0.15 -0.43    -0.303    19.660
ATOM     25  H   UNL d   1      -6.309  -2.043 -18.850 +0.08 +0.22    +0.222    19.660
ATOM     26  O   UNL d   1      -7.498  -1.945 -21.169 -0.02 -0.15    -0.303    19.660
ATOM     27  H   UNL d   1      -8.388  -2.021 -21.568 +0.02 +0.08    +0.222    19.660
ATOM     28  O   UNL d   1     -11.977  -5.669 -18.584 -0.03 -0.02    -0.278    19.660
ATOM     29  P   UNL d   1     -11.970  -6.930 -17.611 -0.07 +0.04    +0.473    19.660
ATOM     30  O   UNL d   1     -13.276  -7.618 -17.444 -0.04 -0.02    -0.228    19.660
ATOM     31  O   UNL d   1     -10.780  -7.779 -18.262 -0.10 -0.01    -0.303    19.660
ATOM     32  H   UNL d   1     -10.013  -7.179 -18.415 +0.01 -0.00    +0.222    19.660
ATOM     33  O   UNL d   1     -11.298  -6.333 -16.296 -0.51 -0.04    -0.303    19.660
ATOM     34  H   UNL d   1     -10.337  -6.175 -16.470 -0.47 -0.05    +0.222    19.660
ATOM     35  O   UNL d   1     -11.252  -1.490 -20.449 -0.01 -0.07    -0.278    19.660
ATOM     36  P   UNL d   1     -10.709  -1.973 -21.869 +0.01 +0.10    +0.473    19.660
ATOM     37  O   UNL d   1     -10.086  -3.333 -21.893 -0.00 -0.04    -0.228    19.660
ATOM     38  O   UNL d   1     -12.007  -1.831 -22.780 +0.00 -0.04    -0.303    19.660
ATOM     39  H   UNL d   1     -12.523  -2.665 -22.736 +0.00 +0.02    +0.222    19.660
ATOM     40  O   UNL d   1      -9.793  -0.752 -22.316 -0.00 -0.09    -0.303    19.660
ATOM     41  H   UNL d   1      -9.090  -0.562 -21.655 +0.02 +0.10    +0.222    19.660
ATOM     42  O   UNL d   1     -13.031  -2.993 -18.699 -0.01 -0.04    -0.278    19.660
ATOM     43  P   UNL d   1     -14.326  -3.228 -19.600 +0.01 +0.05    +0.473    19.660
ATOM     44  O   UNL d   1     -15.594  -2.582 -19.161 +0.00 -0.03    -0.228    19.660
ATOM     45  O   UNL d   1     -13.832  -2.779 -21.045 +0.00 -0.03    -0.303    19.660
ATOM     46  H   UNL d   1     -13.165  -2.066 -20.989 +0.01 +0.03    +0.222    19.660
ATOM     47  O   UNL d   1     -14.380  -4.823 -19.756 +0.00 -0.02    -0.303    19.660
ATOM     48  H   UNL d   1     -14.006  -5.238 -18.951 +0.01 +0.02    +0.222    19.660
TER
ENDMDL
MODEL       92
USER    Run = 92
USER    Cluster Rank = 29
USER    Number of conformations in this cluster = 1
USER  
USER    RMSD from reference structure       = 11.612 A
USER  
USER    Estimated Free Energy of Binding    =   +2.26 kcal/mol  [=(1)+(2)+(3)-(4)]
USER    
USER    (1) Final Intermolecular Energy     =   -4.90 kcal/mol
USER        vdW + Hbond + desolv Energy     =   -4.72 kcal/mol
USER        Electrostatic Energy            =   -0.18 kcal/mol
USER    (2) Final Total Internal Energy     =  -15.42 kcal/mol
USER    (3) Torsional Free Energy           =   +7.16 kcal/mol
USER    (4) Unbound System's Energy  [=(2)] =  -15.42 kcal/mol
USER    
USER    
USER  
USER    DPF = D:/Protein_go_brrr/autodock/final/mut_D99N/IHP/dock.dpf
USER    NEWDPF move	IHP_ideal_opt.pdbqt
USER    NEWDPF about	0.035000 0.082000 -0.065000
USER    NEWDPF tran0	-11.332611 -4.715840 7.704577
USER    NEWDPF axisangle0	0.382810 0.106005 -0.917725 -157.905317
USER    NEWDPF quaternion0	0.375716 0.104041 -0.900719 -0.191620
USER    NEWDPF dihe0	119.49 179.85 58.12 19.23 144.51 134.55 -3.50 -74.35 3.99 10.92 16.82 -127.16 -58.48 162.97 -151.30 75.01 -142.49 -39.10 56.74 0.30 9.89 -8.57 -26.22 179.96 
USER  
USER                              x       y       z    vdW   Elec        q     RMS 
ATOM      1  C   UNL d   1     -13.020  -4.509   7.396 -0.10 +0.12    +0.194    11.612
ATOM      2  C   UNL d   1     -12.321  -3.326   8.068 -0.12 +0.10    +0.194    11.612
ATOM      3  C   UNL d   1     -11.369  -3.785   9.175 -0.15 +0.06    +0.194    11.612
ATOM      4  C   UNL d   1     -10.380  -4.853   8.713 -0.22 +0.05    +0.194    11.612
ATOM      5  C   UNL d   1     -11.020  -5.996   7.937 -0.14 +0.06    +0.194    11.612
ATOM      6  C   UNL d   1     -12.019  -5.539   6.871 -0.12 +0.11    +0.194    11.612
ATOM      7  O   UNL d   1     -13.751  -4.015   6.271 -0.64 -0.36    -0.278    11.612
ATOM      8  P   UNL d   1     -14.985  -3.036   6.538 -0.03 +0.42    +0.473    11.612
ATOM      9  O   UNL d   1     -15.352  -2.860   7.970 -0.01 -0.10    -0.228    11.612
ATOM     10  O   UNL d   1     -14.559  -1.673   5.826 -0.18 -0.41    -0.303    11.612
ATOM     11  H   UNL d   1     -13.606  -1.519   5.960 +0.03 +0.38    +0.222    11.612
ATOM     12  O   UNL d   1     -16.142  -3.562   5.585 -0.05 -0.21    -0.303    11.612
ATOM     13  H   UNL d   1     -17.016  -3.620   6.035 +0.01 +0.09    +0.222    11.612
ATOM     14  O   UNL d   1     -11.565  -2.609   7.084 -0.17 -0.24    -0.278    11.612
ATOM     15  P   UNL d   1     -11.747  -1.018   7.061 -0.04 +0.39    +0.473    11.612
ATOM     16  O   UNL d   1     -11.774  -0.364   5.715 -0.59 -0.27    -0.228    11.612
ATOM     17  O   UNL d   1     -13.080  -0.768   7.896 -0.06 -0.16    -0.303    11.612
ATOM     18  H   UNL d   1     -13.742  -1.464   7.719 +0.04 +0.13    +0.222    11.612
ATOM     19  O   UNL d   1     -10.636  -0.478   8.064 -0.65 -0.18    -0.303    11.612
ATOM     20  H   UNL d   1     -10.563  -1.039   8.858 +0.12 +0.09    +0.222    11.612
ATOM     21  O   UNL d   1     -12.766  -6.691   6.487 -0.06 -0.11    -0.278    11.612
ATOM     22  P   UNL d   1     -12.284  -7.570   5.246 -0.06 +0.15    +0.473    11.612
ATOM     23  O   UNL d   1     -13.219  -7.743   4.098 -0.04 -0.07    -0.228    11.612
ATOM     24  O   UNL d   1     -10.896  -6.882   4.880 -0.13 -0.13    -0.303    11.612
ATOM     25  H   UNL d   1     -10.215  -7.198   5.526 +0.07 +0.07    +0.222    11.612
ATOM     26  O   UNL d   1     -11.803  -8.918   5.970 -0.01 -0.06    -0.303    11.612
ATOM     27  H   UNL d   1     -11.341  -8.689   6.802 +0.04 +0.04    +0.222    11.612
ATOM     28  O   UNL d   1     -10.572  -2.667   9.545 -0.21 -0.08    -0.278    11.612
ATOM     29  P   UNL d   1     -10.896  -1.852  10.874 -0.15 +0.13    +0.473    11.612
ATOM     30  O   UNL d   1     -11.087  -2.673  12.098 -0.13 -0.06    -0.228    11.612
ATOM     31  O   UNL d   1      -9.671  -0.822  10.876 -0.39 -0.07    -0.303    11.612
ATOM     32  H   UNL d   1      -9.597  -0.421   9.979 +0.06 +0.05    +0.222    11.612
ATOM     33  O   UNL d   1     -12.120  -0.943  10.419 -0.06 -0.09    -0.303    11.612
ATOM     34  H   UNL d   1     -12.172  -0.944   9.432 +0.08 +0.08    +0.222    11.612
ATOM     35  O   UNL d   1      -9.950  -6.649   7.257 -0.17 -0.08    -0.278    11.612
ATOM     36  P   UNL d   1      -9.394  -8.047   7.786 -0.11 +0.13    +0.473    11.612
ATOM     37  O   UNL d   1      -8.161  -7.974   8.629 -0.14 -0.10    -0.228    11.612
ATOM     38  O   UNL d   1     -10.667  -8.641   8.537 -0.03 -0.07    -0.303    11.612
ATOM     39  H   UNL d   1     -10.869  -8.081   9.317 +0.04 +0.05    +0.222    11.612
ATOM     40  O   UNL d   1      -9.305  -8.905   6.449 -0.09 -0.07    -0.303    11.612
ATOM     41  H   UNL d   1      -9.991  -8.638   5.798 +0.06 +0.04    +0.222    11.612
ATOM     42  O   UNL d   1      -9.800  -5.418   9.894 -0.16 -0.06    -0.278    11.612
ATOM     43  P   UNL d   1     -10.713  -6.307  10.852 -0.04 +0.09    +0.473    11.612
ATOM     44  O   UNL d   1     -12.091  -6.628  10.385 -0.02 -0.04    -0.228    11.612
ATOM     45  O   UNL d   1      -9.802  -7.585  11.116 -0.04 -0.07    -0.303    11.612
ATOM     46  H   UNL d   1      -9.537  -8.015  10.278 +0.05 +0.06    +0.222    11.612
ATOM     47  O   UNL d   1     -10.619  -5.545  12.259 -0.05 -0.06    -0.303    11.612
ATOM     48  H   UNL d   1     -10.835  -4.598  12.128 +0.05 +0.04    +0.222    11.612
TER
ENDMDL
MODEL       75
USER    Run = 75
USER    Cluster Rank = 30
USER    Number of conformations in this cluster = 1
USER  
USER    RMSD from reference structure       = 11.330 A
USER  
USER    Estimated Free Energy of Binding    =   +2.32 kcal/mol  [=(1)+(2)+(3)-(4)]
USER    
USER    (1) Final Intermolecular Energy     =   -4.84 kcal/mol
USER        vdW + Hbond + desolv Energy     =   -4.30 kcal/mol
USER        Electrostatic Energy            =   -0.54 kcal/mol
USER    (2) Final Total Internal Energy     =  -13.54 kcal/mol
USER    (3) Torsional Free Energy           =   +7.16 kcal/mol
USER    (4) Unbound System's Energy  [=(2)] =  -13.54 kcal/mol
USER    
USER    
USER  
USER    DPF = D:/Protein_go_brrr/autodock/final/mut_D99N/IHP/dock.dpf
USER    NEWDPF move	IHP_ideal_opt.pdbqt
USER    NEWDPF about	0.035000 0.082000 -0.065000
USER    NEWDPF tran0	-12.505247 -6.353198 -2.281895
USER    NEWDPF axisangle0	-0.055365 -0.928377 0.367493 51.136402
USER    NEWDPF quaternion0	-0.023895 -0.400674 0.158604 0.902072
USER    NEWDPF dihe0	82.13 71.15 2.98 109.91 66.36 -81.48 -90.75 -34.04 -8.77 30.55 109.09 -179.86 -72.35 -74.07 116.49 -2.75 -127.65 134.60 72.91 24.83 -49.76 3.85 155.10 -7.08 
USER  
USER                              x       y       z    vdW   Elec        q     RMS 
ATOM      1  C   UNL d   1     -11.423  -7.665  -2.586 -0.09 -0.09    +0.194    11.330
ATOM      2  C   UNL d   1     -12.717  -8.031  -1.857 -0.02 -0.03    +0.194    11.330
ATOM      3  C   UNL d   1     -13.063  -7.012  -0.770 -0.02 +0.01    +0.194    11.330
ATOM      4  C   UNL d   1     -13.074  -5.572  -1.277 -0.06 +0.02    +0.194    11.330
ATOM      5  C   UNL d   1     -11.854  -5.197  -2.108 -0.13 +0.01    +0.194    11.330
ATOM      6  C   UNL d   1     -11.471  -6.246  -3.155 -0.12 -0.04    +0.194    11.330
ATOM      7  O   UNL d   1     -11.263  -8.560  -3.689 -0.08 +0.18    -0.278    11.330
ATOM      8  P   UNL d   1     -11.411 -10.128  -3.422 -0.02 -0.34    +0.473    11.330
ATOM      9  O   UNL d   1     -11.225 -10.547  -2.006 -0.07 +0.17    -0.228    11.330
ATOM     10  O   UNL d   1     -12.855 -10.485  -3.997 -0.01 +0.08    -0.303    11.330
ATOM     11  H   UNL d   1     -13.540 -10.171  -3.378 +0.01 -0.04    +0.222    11.330
ATOM     12  O   UNL d   1     -10.451 -10.820  -4.482 -0.11 +0.28    -0.303    11.330
ATOM     13  H   UNL d   1      -9.709 -10.240  -4.766 +0.06 -0.29    +0.222    11.330
ATOM     14  O   UNL d   1     -13.791  -8.071  -2.805 -0.00 +0.03    -0.278    11.330
ATOM     15  P   UNL d   1     -15.059  -8.967  -2.412 +0.00 -0.03    +0.473    11.330
ATOM     16  O   UNL d   1     -14.851  -9.995  -1.344 +0.00 +0.01    -0.228    11.330
ATOM     17  O   UNL d   1     -16.183  -7.903  -2.034 -0.00 -0.00    -0.303    11.330
ATOM     18  H   UNL d   1     -16.181  -7.715  -1.075 +0.01 +0.01    +0.222    11.330
ATOM     19  O   UNL d   1     -15.599  -9.521  -3.802 +0.00 +0.02    -0.303    11.330
ATOM     20  H   UNL d   1     -14.885  -9.921  -4.332 +0.01 -0.02    +0.222    11.330
ATOM     21  O   UNL d   1     -10.153  -5.927  -3.595 -0.19 +0.08    -0.278    11.330
ATOM     22  P   UNL d   1      -9.690  -6.333  -5.066 -0.26 -0.18    +0.473    11.330
ATOM     23  O   UNL d   1      -8.735  -5.435  -5.778 -0.39 +0.05    -0.228    11.330
ATOM     24  O   UNL d   1      -9.167  -7.820  -4.844 -0.11 +0.27    -0.303    11.330
ATOM     25  H   UNL d   1      -9.284  -8.048  -3.887 -0.42 -0.40    +0.222    11.330
ATOM     26  O   UNL d   1     -11.097  -6.582  -5.794 -0.15 +0.11    -0.303    11.330
ATOM     27  H   UNL d   1     -11.294  -5.824  -6.381 -0.41 -0.12    +0.222    11.330
ATOM     28  O   UNL d   1     -14.395  -7.273  -0.346 -0.00 -0.02    -0.278    11.330
ATOM     29  P   UNL d   1     -14.683  -7.775   1.138 +0.00 +0.07    +0.473    11.330
ATOM     30  O   UNL d   1     -13.590  -8.554   1.774 -0.01 -0.02    -0.228    11.330
ATOM     31  O   UNL d   1     -15.084  -6.388   1.828 -0.02 -0.11    -0.303    11.330
ATOM     32  H   UNL d   1     -14.497  -5.680   1.475 +0.02 +0.12    +0.222    11.330
ATOM     33  O   UNL d   1     -16.088  -8.506   0.976 +0.00 -0.02    -0.303    11.330
ATOM     34  H   UNL d   1     -16.189  -8.805   0.039 +0.00 +0.01    +0.222    11.330
ATOM     35  O   UNL d   1     -12.215  -4.012  -2.814 -0.19 -0.03    -0.278    11.330
ATOM     36  P   UNL d   1     -13.213  -4.088  -4.057 -0.20 +0.04    +0.473    11.330
ATOM     37  O   UNL d   1     -12.586  -4.450  -5.366 -0.36 -0.01    -0.228    11.330
ATOM     38  O   UNL d   1     -14.298  -5.133  -3.540 -0.08 -0.01    -0.303    11.330
ATOM     39  H   UNL d   1     -13.938  -6.042  -3.632 +0.06 -0.00    +0.222    11.330
ATOM     40  O   UNL d   1     -13.962  -2.688  -3.978 -0.29 -0.05    -0.303    11.330
ATOM     41  H   UNL d   1     -13.776  -2.222  -3.132 +0.10 +0.04    +0.222    11.330
ATOM     42  O   UNL d   1     -13.074  -4.726  -0.123 -0.08 -0.12    -0.278    11.330
ATOM     43  P   UNL d   1     -14.309  -3.745   0.116 -0.08 +0.27    +0.473    11.330
ATOM     44  O   UNL d   1     -14.271  -2.874   1.323 -0.56 -0.36    -0.228    11.330
ATOM     45  O   UNL d   1     -14.393  -2.949  -1.260 -0.11 -0.09    -0.303    11.330
ATOM     46  H   UNL d   1     -14.169  -3.522  -2.020 +0.07 +0.04    +0.222    11.330
ATOM     47  O   UNL d   1     -15.577  -4.720   0.006 -0.02 -0.10    -0.303    11.330
ATOM     48  H   UNL d   1     -15.268  -5.630  -0.188 +0.02 +0.05    +0.222    11.330
TER
ENDMDL
MODEL       43
USER    Run = 43
USER    Cluster Rank = 31
USER    Number of conformations in this cluster = 1
USER  
USER    RMSD from reference structure       = 14.351 A
USER  
USER    Estimated Free Energy of Binding    =   +2.35 kcal/mol  [=(1)+(2)+(3)-(4)]
USER    
USER    (1) Final Intermolecular Energy     =   -4.81 kcal/mol
USER        vdW + Hbond + desolv Energy     =   -4.64 kcal/mol
USER        Electrostatic Energy            =   -0.17 kcal/mol
USER    (2) Final Total Internal Energy     =  -12.60 kcal/mol
USER    (3) Torsional Free Energy           =   +7.16 kcal/mol
USER    (4) Unbound System's Energy  [=(2)] =  -12.60 kcal/mol
USER    
USER    
USER  
USER    DPF = D:/Protein_go_brrr/autodock/final/mut_D99N/IHP/dock.dpf
USER    NEWDPF move	IHP_ideal_opt.pdbqt
USER    NEWDPF about	0.035000 0.082000 -0.065000
USER    NEWDPF tran0	-0.250316 -15.826111 -7.288126
USER    NEWDPF axisangle0	-0.502598 -0.852688 -0.142542 121.512761
USER    NEWDPF quaternion0	-0.438542 -0.744013 -0.124375 0.488524
USER    NEWDPF dihe0	177.48 27.14 60.48 51.52 32.34 -103.78 -118.97 109.14 67.39 -5.42 -20.29 -144.93 56.10 153.55 -53.69 15.11 116.63 -170.94 27.54 -13.97 -177.02 53.28 7.34 -36.70 
USER  
USER                              x       y       z    vdW   Elec        q     RMS 
ATOM      1  C   UNL d   1      -0.234 -15.568  -8.996 -0.17 +0.01    +0.194    14.351
ATOM      2  C   UNL d   1      -0.797 -16.914  -8.537 -0.07 +0.00    +0.194    14.351
ATOM      3  C   UNL d   1       0.054 -17.535  -7.427 -0.04 +0.00    +0.194    14.351
ATOM      4  C   UNL d   1       0.304 -16.584  -6.258 -0.07 -0.00    +0.194    14.351
ATOM      5  C   UNL d   1       0.757 -15.192  -6.676 -0.19 -0.00    +0.194    14.351
ATOM      6  C   UNL d   1      -0.055 -14.596  -7.829 -0.18 -0.01    +0.194    14.351
ATOM      7  O   UNL d   1      -1.170 -14.978  -9.901 -0.16 +0.01    -0.278    14.351
ATOM      8  P   UNL d   1      -0.954 -15.201 -11.468 -0.09 +0.07    +0.473    14.351
ATOM      9  O   UNL d   1      -1.924 -16.128 -12.113 -0.08 -0.01    -0.228    14.351
ATOM     10  O   UNL d   1      -0.993 -13.728 -12.078 -0.41 -0.10    -0.303    14.351
ATOM     11  H   UNL d   1      -0.822 -13.077 -11.372 +0.05 +0.03    +0.222    14.351
ATOM     12  O   UNL d   1       0.580 -15.585 -11.624 -0.10 -0.13    -0.303    14.351
ATOM     13  H   UNL d   1       1.120 -15.338 -10.840 +0.08 +0.08    +0.222    14.351
ATOM     14  O   UNL d   1      -2.126 -16.718  -8.039 -0.08 +0.01    -0.278    14.351
ATOM     15  P   UNL d   1      -3.302 -17.472  -8.822 -0.04 -0.02    +0.473    14.351
ATOM     16  O   UNL d   1      -4.649 -16.820  -8.800 -0.10 +0.02    -0.228    14.351
ATOM     17  O   UNL d   1      -2.729 -17.656 -10.297 -0.02 +0.01    -0.303    14.351
ATOM     18  H   UNL d   1      -2.178 -16.893 -10.558 +0.04 -0.00    +0.222    14.351
ATOM     19  O   UNL d   1      -3.253 -18.964  -8.272 -0.01 +0.01    -0.303    14.351
ATOM     20  H   UNL d   1      -2.472 -19.114  -7.708 +0.01 -0.00    +0.222    14.351
ATOM     21  O   UNL d   1       0.686 -13.482  -8.322 -0.19 +0.05    -0.278    14.351
ATOM     22  P   UNL d   1       1.905 -13.721  -9.322 -0.18 +0.02    +0.473    14.351
ATOM     23  O   UNL d   1       2.578 -15.053  -9.307 -0.26 -0.06    -0.228    14.351
ATOM     24  O   UNL d   1       1.265 -13.312 -10.720 -0.21 -0.11    -0.303    14.351
ATOM     25  H   UNL d   1       0.307 -13.565 -10.706 +0.03 +0.05    +0.222    14.351
ATOM     26  O   UNL d   1       2.840 -12.458  -9.003 -0.29 +0.05    -0.303    14.351
ATOM     27  H   UNL d   1       3.378 -12.648  -8.208 -0.38 -0.12    +0.222    14.351
ATOM     28  O   UNL d   1      -0.683 -18.620  -6.879 -0.01 +0.00    -0.278    14.351
ATOM     29  P   UNL d   1       0.045 -19.714  -5.978 -0.00 -0.00    +0.473    14.351
ATOM     30  O   UNL d   1       1.529 -19.655  -5.974 -0.01 -0.00    -0.228    14.351
ATOM     31  O   UNL d   1      -0.696 -19.464  -4.582 -0.00 +0.01    -0.303    14.351
ATOM     32  H   UNL d   1      -0.437 -18.576  -4.244 +0.01 -0.01    +0.222    14.351
ATOM     33  O   UNL d   1      -0.620 -21.066  -6.492 -0.00 +0.00    -0.303    14.351
ATOM     34  H   UNL d   1      -0.108 -21.832  -6.135 +0.00 -0.00    +0.222    14.351
ATOM     35  O   UNL d   1       0.546 -14.358  -5.539 -0.17 +0.01    -0.278    14.351
ATOM     36  P   UNL d   1       1.639 -13.273  -5.122 -0.29 -0.02    +0.473    14.351
ATOM     37  O   UNL d   1       1.153 -12.180  -4.225 -0.20 +0.01    -0.228    14.351
ATOM     38  O   UNL d   1       2.777 -14.186  -4.484 -0.29 +0.00    -0.303    14.351
ATOM     39  H   UNL d   1       2.478 -15.121  -4.486 +0.10 -0.00    +0.222    14.351
ATOM     40  O   UNL d   1       2.240 -12.839  -6.529 -0.37 +0.03    -0.303    14.351
ATOM     41  H   UNL d   1       2.453 -13.617  -7.090 -0.10 -0.03    +0.222    14.351
ATOM     42  O   UNL d   1       1.360 -17.155  -5.478 -0.05 -0.00    -0.278    14.351
ATOM     43  P   UNL d   1       1.367 -16.921  -3.901 -0.03 -0.01    +0.473    14.351
ATOM     44  O   UNL d   1       2.596 -16.331  -3.299 -0.18 +0.01    -0.228    14.351
ATOM     45  O   UNL d   1       0.050 -16.058  -3.670 -0.03 +0.02    -0.303    14.351
ATOM     46  H   UNL d   1       0.244 -15.100  -3.681 +0.09 -0.01    +0.222    14.351
ATOM     47  O   UNL d   1       0.928 -18.348  -3.317 -0.01 +0.01    -0.303    14.351
ATOM     48  H   UNL d   1       1.284 -19.056  -3.894 +0.02 -0.00    +0.222    14.351
TER
ENDMDL
MODEL       14
USER    Run = 14
USER    Cluster Rank = 32
USER    Number of conformations in this cluster = 1
USER  
USER    RMSD from reference structure       = 13.459 A
USER  
USER    Estimated Free Energy of Binding    =   +2.42 kcal/mol  [=(1)+(2)+(3)-(4)]
USER    
USER    (1) Final Intermolecular Energy     =   -4.74 kcal/mol
USER        vdW + Hbond + desolv Energy     =   -4.71 kcal/mol
USER        Electrostatic Energy            =   -0.03 kcal/mol
USER    (2) Final Total Internal Energy     =  -13.78 kcal/mol
USER    (3) Torsional Free Energy           =   +7.16 kcal/mol
USER    (4) Unbound System's Energy  [=(2)] =  -13.78 kcal/mol
USER    
USER    
USER  
USER    DPF = D:/Protein_go_brrr/autodock/final/mut_D99N/IHP/dock.dpf
USER    NEWDPF move	IHP_ideal_opt.pdbqt
USER    NEWDPF about	0.035000 0.082000 -0.065000
USER    NEWDPF tran0	-1.115201 -15.613650 4.157047
USER    NEWDPF axisangle0	-0.424382 0.885845 0.187562 -84.256915
USER    NEWDPF quaternion0	-0.284673 0.594220 0.125815 -0.741643
USER    NEWDPF dihe0	46.20 13.30 124.85 107.81 72.61 -44.76 -136.26 -23.00 97.14 27.21 61.12 -43.28 173.98 82.84 54.25 26.69 124.93 110.71 32.70 -13.71 -179.47 -33.30 -5.55 150.55 
USER  
USER                              x       y       z    vdW   Elec        q     RMS 
ATOM      1  C   UNL d   1       0.320 -16.067   3.309 -0.04 -0.03    +0.194    13.459
ATOM      2  C   UNL d   1       0.116 -16.737   4.669 -0.02 -0.02    +0.194    13.459
ATOM      3  C   UNL d   1      -0.369 -15.741   5.725 -0.02 -0.02    +0.194    13.459
ATOM      4  C   UNL d   1      -1.595 -14.946   5.283 -0.04 -0.02    +0.194    13.459
ATOM      5  C   UNL d   1      -1.481 -14.356   3.883 -0.07 -0.02    +0.194    13.459
ATOM      6  C   UNL d   1      -0.938 -15.334   2.840 -0.04 -0.02    +0.194    13.459
ATOM      7  O   UNL d   1       0.602 -17.087   2.348 -0.02 +0.03    -0.278    13.459
ATOM      8  P   UNL d   1       2.126 -17.504   2.109 -0.06 -0.08    +0.473    13.459
ATOM      9  O   UNL d   1       2.529 -17.630   0.681 -0.12 +0.03    -0.228    13.459
ATOM     10  O   UNL d   1       2.958 -16.398   2.901 -0.01 +0.12    -0.303    13.459
ATOM     11  H   UNL d   1       3.441 -15.835   2.267 -0.23 -0.14    +0.222    13.459
ATOM     12  O   UNL d   1       2.347 -18.794   3.009 -0.03 +0.04    -0.303    13.459
ATOM     13  H   UNL d   1       1.804 -18.790   3.829 +0.02 -0.02    +0.222    13.459
ATOM     14  O   UNL d   1      -0.864 -17.775   4.537 -0.00 +0.02    -0.278    13.459
ATOM     15  P   UNL d   1      -0.373 -19.267   4.850 +0.00 -0.03    +0.473    13.459
ATOM     16  O   UNL d   1      -1.310 -20.132   5.633 -0.00 +0.01    -0.228    13.459
ATOM     17  O   UNL d   1      -0.029 -19.870   3.416 -0.00 +0.02    -0.303    13.459
ATOM     18  H   UNL d   1       0.255 -19.169   2.798 +0.01 -0.01    +0.222    13.459
ATOM     19  O   UNL d   1       1.078 -19.084   5.476 -0.00 +0.02    -0.303    13.459
ATOM     20  H   UNL d   1       1.086 -18.402   6.173 +0.01 -0.02    +0.222    13.459
ATOM     21  O   UNL d   1      -0.570 -14.560   1.701 -0.06 +0.03    -0.278    13.459
ATOM     22  P   UNL d   1       0.799 -13.741   1.708 -0.22 -0.10    +0.473    13.459
ATOM     23  O   UNL d   1       2.051 -14.457   1.327 -0.33 +0.07    -0.228    13.459
ATOM     24  O   UNL d   1       0.436 -12.494   0.788 -0.29 +0.05    -0.303    13.459
ATOM     25  H   UNL d   1      -0.531 -12.536   0.578 +0.12 -0.00    +0.222    13.459
ATOM     26  O   UNL d   1       0.780 -13.089   3.172 -0.20 +0.08    -0.303    13.459
ATOM     27  H   UNL d   1       1.686 -13.105   3.543 -0.43 -0.13    +0.222    13.459
ATOM     28  O   UNL d   1      -0.792 -16.489   6.857 -0.00 +0.02    -0.278    13.459
ATOM     29  P   UNL d   1       0.281 -17.102   7.863 +0.02 -0.04    +0.473    13.459
ATOM     30  O   UNL d   1       1.701 -16.818   7.535 -0.01 +0.02    -0.228    13.459
ATOM     31  O   UNL d   1      -0.274 -16.524   9.249 +0.00 +0.03    -0.303    13.459
ATOM     32  H   UNL d   1       0.081 -15.614   9.374 +0.04 -0.03    +0.222    13.459
ATOM     33  O   UNL d   1      -0.153 -18.633   7.922 +0.00 +0.02    -0.303    13.459
ATOM     34  H   UNL d   1      -0.471 -18.911   7.028 +0.00 -0.01    +0.222    13.459
ATOM     35  O   UNL d   1      -2.812 -14.023   3.494 -0.04 +0.02    -0.278    13.459
ATOM     36  P   UNL d   1      -3.166 -12.540   3.025 -0.07 -0.02    +0.473    13.459
ATOM     37  O   UNL d   1      -4.517 -12.365   2.407 -0.11 +0.02    -0.228    13.459
ATOM     38  O   UNL d   1      -2.949 -11.713   4.368 -0.10 +0.02    -0.303    13.459
ATOM     39  H   UNL d   1      -2.290 -12.177   4.928 +0.09 -0.03    +0.222    13.459
ATOM     40  O   UNL d   1      -1.908 -12.157   2.131 -0.43 -0.01    -0.303    13.459
ATOM     41  H   UNL d   1      -1.161 -12.780   2.267 +0.11 -0.01    +0.222    13.459
ATOM     42  O   UNL d   1      -1.729 -13.850   6.193 -0.08 +0.04    -0.278    13.459
ATOM     43  P   UNL d   1      -0.414 -13.097   6.692 -0.24 -0.08    +0.473    13.459
ATOM     44  O   UNL d   1      -0.565 -11.694   7.170 -0.84 +0.08    -0.228    13.459
ATOM     45  O   UNL d   1       0.169 -14.097   7.784 -0.12 +0.05    -0.303    13.459
ATOM     46  H   UNL d   1      -0.480 -14.792   8.015 +0.06 -0.03    +0.222    13.459
ATOM     47  O   UNL d   1       0.611 -13.307   5.478 -0.65 +0.03    -0.303    13.459
ATOM     48  H   UNL d   1       1.069 -12.461   5.291 -0.24 +0.02    +0.222    13.459
TER
ENDMDL
MODEL       18
USER    Run = 18
USER    Cluster Rank = 33
USER    Number of conformations in this cluster = 1
USER  
USER    RMSD from reference structure       = 19.588 A
USER  
USER    Estimated Free Energy of Binding    =   +2.42 kcal/mol  [=(1)+(2)+(3)-(4)]
USER    
USER    (1) Final Intermolecular Energy     =   -4.73 kcal/mol
USER        vdW + Hbond + desolv Energy     =   -4.62 kcal/mol
USER        Electrostatic Energy            =   -0.11 kcal/mol
USER    (2) Final Total Internal Energy     =  -14.04 kcal/mol
USER    (3) Torsional Free Energy           =   +7.16 kcal/mol
USER    (4) Unbound System's Energy  [=(2)] =  -14.04 kcal/mol
USER    
USER    
USER  
USER    DPF = D:/Protein_go_brrr/autodock/final/mut_D99N/IHP/dock.dpf
USER    NEWDPF move	IHP_ideal_opt.pdbqt
USER    NEWDPF about	0.035000 0.082000 -0.065000
USER    NEWDPF tran0	-9.357874 12.343068 14.992250
USER    NEWDPF axisangle0	0.861400 0.346279 0.371592 84.686670
USER    NEWDPF quaternion0	0.580215 0.233244 0.250294 0.739122
USER    NEWDPF dihe0	102.29 11.05 178.35 17.11 149.72 147.27 -140.90 -78.96 105.42 -128.21 -130.97 -179.02 162.92 -170.55 49.38 -139.85 -152.22 164.94 52.54 9.95 -176.17 -0.68 2.87 179.59 
USER  
USER                              x       y       z    vdW   Elec        q     RMS 
ATOM      1  C   UNL d   1      -9.010  12.811  16.619 -0.14 -0.04    +0.194    19.588
ATOM      2  C   UNL d   1     -10.461  12.413  16.341 -0.15 -0.03    +0.194    19.588
ATOM      3  C   UNL d   1     -10.968  13.004  15.024 -0.14 -0.05    +0.194    19.588
ATOM      4  C   UNL d   1     -10.052  12.707  13.839 -0.16 -0.05    +0.194    19.588
ATOM      5  C   UNL d   1      -8.578  12.981  14.111 -0.21 -0.05    +0.194    19.588
ATOM      6  C   UNL d   1      -8.086  12.444  15.457 -0.16 -0.07    +0.194    19.588
ATOM      7  O   UNL d   1      -8.561  12.086  17.766 -0.18 +0.07    -0.278    19.588
ATOM      8  P   UNL d   1      -9.170  12.468  19.192 -0.07 -0.07    +0.473    19.588
ATOM      9  O   UNL d   1      -8.225  12.345  20.335 -0.10 +0.05    -0.228    19.588
ATOM     10  O   UNL d   1      -9.724  13.950  18.991 -0.01 +0.04    -0.303    19.588
ATOM     11  H   UNL d   1      -9.006  14.526  18.667 +0.03 -0.03    +0.222    19.588
ATOM     12  O   UNL d   1     -10.511  11.624  19.308 -0.06 +0.01    -0.303    19.588
ATOM     13  H   UNL d   1     -10.970  11.509  18.445 +0.05 -0.01    +0.222    19.588
ATOM     14  O   UNL d   1     -10.547  10.985  16.264 -0.21 +0.04    -0.278    19.588
ATOM     15  P   UNL d   1     -11.849  10.311  16.908 -0.08 +0.01    +0.473    19.588
ATOM     16  O   UNL d   1     -11.631   9.424  18.094 -0.07 -0.04    -0.228    19.588
ATOM     17  O   UNL d   1     -12.807  11.543  17.227 -0.04 +0.01    -0.303    19.588
ATOM     18  H   UNL d   1     -13.305  11.816  16.433 +0.05 -0.02    +0.222    19.588
ATOM     19  O   UNL d   1     -12.597   9.636  15.676 -0.23 +0.01    -0.303    19.588
ATOM     20  H   UNL d   1     -12.601  10.219  14.894 -0.38 -0.09    +0.222    19.588
ATOM     21  O   UNL d   1      -6.827  13.062  15.712 -0.25 +0.08    -0.278    19.588
ATOM     22  P   UNL d   1      -6.778  14.537  16.319 -0.04 -0.10    +0.473    19.588
ATOM     23  O   UNL d   1      -6.995  14.702  17.785 -0.05 +0.05    -0.228    19.588
ATOM     24  O   UNL d   1      -5.371  15.060  15.789 -0.08 +0.06    -0.303    19.588
ATOM     25  H   UNL d   1      -5.497  15.401  14.867 +0.06 -0.04    +0.222    19.588
ATOM     26  O   UNL d   1      -7.803  15.316  15.364 -0.01 +0.05    -0.303    19.588
ATOM     27  H   UNL d   1      -7.830  14.873  14.492 +0.07 -0.04    +0.222    19.588
ATOM     28  O   UNL d   1     -12.201  12.366  14.716 -0.14 +0.08    -0.278    19.588
ATOM     29  P   UNL d   1     -13.570  13.177  14.805 -0.06 -0.10    +0.473    19.588
ATOM     30  O   UNL d   1     -14.805  12.352  14.786 -0.05 +0.03    -0.228    19.588
ATOM     31  O   UNL d   1     -13.295  14.044  16.121 -0.01 +0.04    -0.303    19.588
ATOM     32  H   UNL d   1     -13.599  13.530  16.905 +0.02 -0.02    +0.222    19.588
ATOM     33  O   UNL d   1     -13.401  14.246  13.637 -0.10 +0.13    -0.303    19.588
ATOM     34  H   UNL d   1     -12.441  14.334  13.418 +0.04 -0.10    +0.222    19.588
ATOM     35  O   UNL d   1      -7.861  12.285  13.093 -0.27 +0.07    -0.278    19.588
ATOM     36  P   UNL d   1      -6.681  13.009  12.301 -0.23 -0.11    +0.473    19.588
ATOM     37  O   UNL d   1      -6.985  13.372  10.882 -0.35 +0.05    -0.228    19.588
ATOM     38  O   UNL d   1      -6.373  14.255  13.244 -0.08 +0.07    -0.303    19.588
ATOM     39  H   UNL d   1      -6.491  13.986  14.180 +0.10 -0.05    +0.222    19.588
ATOM     40  O   UNL d   1      -5.454  12.029  12.548 -0.27 +0.08    -0.303    19.588
ATOM     41  H   UNL d   1      -4.605  12.426  12.250 -0.36 -0.13    +0.222    19.588
ATOM     42  O   UNL d   1     -10.453  13.578  12.776 -0.12 +0.09    -0.278    19.588
ATOM     43  P   UNL d   1     -10.197  15.145  12.926 -0.08 -0.17    +0.473    19.588
ATOM     44  O   UNL d   1     -11.158  16.065  12.254 -0.12 +0.14    -0.228    19.588
ATOM     45  O   UNL d   1     -10.108  15.336  14.503 -0.02 +0.07    -0.303    19.588
ATOM     46  H   UNL d   1      -9.596  16.135  14.739 +0.02 -0.04    +0.222    19.588
ATOM     47  O   UNL d   1      -8.663  15.309  12.491 -0.06 +0.08    -0.303    19.588
ATOM     48  H   UNL d   1      -8.299  14.431  12.256 +0.09 -0.06    +0.222    19.588
TER
ENDMDL
MODEL       42
USER    Run = 42
USER    Cluster Rank = 34
USER    Number of conformations in this cluster = 1
USER  
USER    RMSD from reference structure       = 18.023 A
USER  
USER    Estimated Free Energy of Binding    =   +2.43 kcal/mol  [=(1)+(2)+(3)-(4)]
USER    
USER    (1) Final Intermolecular Energy     =   -4.73 kcal/mol
USER        vdW + Hbond + desolv Energy     =   -4.49 kcal/mol
USER        Electrostatic Energy            =   -0.25 kcal/mol
USER    (2) Final Total Internal Energy     =  -14.70 kcal/mol
USER    (3) Torsional Free Energy           =   +7.16 kcal/mol
USER    (4) Unbound System's Energy  [=(2)] =  -14.70 kcal/mol
USER    
USER    
USER  
USER    DPF = D:/Protein_go_brrr/autodock/final/mut_D99N/IHP/dock.dpf
USER    NEWDPF move	IHP_ideal_opt.pdbqt
USER    NEWDPF about	0.035000 0.082000 -0.065000
USER    NEWDPF tran0	15.903770 -14.774790 -2.517610
USER    NEWDPF axisangle0	-0.717862 -0.662703 0.213303 165.169041
USER    NEWDPF quaternion0	-0.711858 -0.657161 0.211519 0.129064
USER    NEWDPF dihe0	-72.73 23.64 -179.36 4.33 -168.49 92.81 9.90 -134.41 128.30 24.04 110.17 -29.40 -133.50 82.74 78.54 -123.87 106.18 47.05 21.18 -45.15 169.32 33.19 -15.66 -177.88 
USER  
USER                              x       y       z    vdW   Elec        q     RMS 
ATOM      1  C   UNL d   1      14.979 -13.945  -3.718 -0.12 +0.00    +0.194    18.023
ATOM      2  C   UNL d   1      14.173 -14.791  -2.731 -0.19 +0.04    +0.194    18.023
ATOM      3  C   UNL d   1      14.834 -16.147  -2.476 -0.10 +0.07    +0.194    18.023
ATOM      4  C   UNL d   1      16.303 -16.035  -2.075 -0.07 +0.02    +0.194    18.023
ATOM      5  C   UNL d   1      17.120 -15.108  -2.966 -0.04 +0.00    +0.194    18.023
ATOM      6  C   UNL d   1      16.432 -13.776  -3.271 -0.11 -0.01    +0.194    18.023
ATOM      7  O   UNL d   1      14.395 -12.641  -3.768 -0.18 +0.01    -0.278    18.023
ATOM      8  P   UNL d   1      13.450 -12.280  -5.005 -0.17 -0.01    +0.473    18.023
ATOM      9  O   UNL d   1      14.163 -11.863  -6.243 -0.15 -0.01    -0.228    18.023
ATOM     10  O   UNL d   1      12.557 -13.586  -5.204 -0.28 +0.00    -0.303    18.023
ATOM     11  H   UNL d   1      11.615 -13.336  -5.244 -0.36 -0.03    +0.222    18.023
ATOM     12  O   UNL d   1      12.395 -11.240  -4.429 -0.40 +0.04    -0.303    18.023
ATOM     13  H   UNL d   1      12.302 -11.288  -3.450 +0.17 -0.02    +0.222    18.023
ATOM     14  O   UNL d   1      14.076 -14.089  -1.485 -0.44 -0.05    -0.278    18.023
ATOM     15  P   UNL d   1      12.870 -13.045  -1.344 -0.30 +0.05    +0.473    18.023
ATOM     16  O   UNL d   1      12.142 -13.032  -0.036 -0.83 -0.05    -0.228    18.023
ATOM     17  O   UNL d   1      13.531 -11.640  -1.696 -0.29 +0.05    -0.303    18.023
ATOM     18  H   UNL d   1      13.541 -11.488  -2.661 +0.14 -0.03    +0.222    18.023
ATOM     19  O   UNL d   1      11.968 -13.305  -2.628 -0.28 -0.03    -0.303    18.023
ATOM     20  H   UNL d   1      12.483 -13.226  -3.452 +0.13 +0.01    +0.222    18.023
ATOM     21  O   UNL d   1      17.139 -13.187  -4.359 -0.05 +0.00    -0.278    18.023
ATOM     22  P   UNL d   1      17.092 -13.874  -5.799 +0.00 +0.00    +0.473    18.023
ATOM     23  O   UNL d   1      16.313 -13.199  -6.877 -0.06 -0.00    -0.228    18.023
ATOM     24  O   UNL d   1      18.639 -14.070  -6.116 -0.01 -0.00    -0.303    18.023
ATOM     25  H   UNL d   1      18.792 -15.026  -6.327 +0.01 +0.00    +0.222    18.023
ATOM     26  O   UNL d   1      16.637 -15.367  -5.432 -0.00 -0.01    -0.303    18.023
ATOM     27  H   UNL d   1      17.418 -15.877  -5.134 +0.01 +0.00    +0.222    18.023
ATOM     28  O   UNL d   1      14.182 -16.739  -1.359 -0.34 -0.35    -0.278    18.023
ATOM     29  P   UNL d   1      13.943 -18.312  -1.308 +0.02 +0.32    +0.473    18.023
ATOM     30  O   UNL d   1      12.738 -18.753  -0.559 -0.19 -0.16    -0.228    18.023
ATOM     31  O   UNL d   1      13.992 -18.654  -2.870 -0.02 -0.07    -0.303    18.023
ATOM     32  H   UNL d   1      14.883 -18.412  -3.216 +0.02 +0.04    +0.222    18.023
ATOM     33  O   UNL d   1      15.349 -18.847  -0.786 -0.06 -0.10    -0.303    18.023
ATOM     34  H   UNL d   1      16.003 -18.804  -1.526 +0.02 +0.04    +0.222    18.023
ATOM     35  O   UNL d   1      18.305 -14.810  -2.230 -0.03 +0.00    -0.278    18.023
ATOM     36  P   UNL d   1      19.727 -15.299  -2.762 +0.01 +0.00    +0.473    18.023
ATOM     37  O   UNL d   1      20.888 -14.435  -2.385 -0.01 -0.00    -0.228    18.023
ATOM     38  O   UNL d   1      19.799 -16.781  -2.185 +0.00 -0.01    -0.303    18.023
ATOM     39  H   UNL d   1      19.034 -17.295  -2.522 +0.01 +0.01    +0.222    18.023
ATOM     40  O   UNL d   1      19.456 -15.506  -4.315 -0.00 -0.00    -0.303    18.023
ATOM     41  H   UNL d   1      18.495 -15.567  -4.512 +0.01 +0.00    +0.222    18.023
ATOM     42  O   UNL d   1      16.868 -17.344  -2.199 -0.01 -0.03    -0.278    18.023
ATOM     43  P   UNL d   1      17.093 -17.953  -3.656 +0.01 +0.03    +0.473    18.023
ATOM     44  O   UNL d   1      18.424 -17.743  -4.290 +0.00 -0.01    -0.228    18.023
ATOM     45  O   UNL d   1      16.699 -19.482  -3.460 +0.00 -0.02    -0.303    18.023
ATOM     46  H   UNL d   1      15.944 -19.582  -2.846 +0.01 +0.02    +0.222    18.023
ATOM     47  O   UNL d   1      15.837 -17.396  -4.483 +0.00 -0.02    -0.303    18.023
ATOM     48  H   UNL d   1      16.094 -17.282  -5.421 +0.01 +0.01    +0.222    18.023
TER
ENDMDL
MODEL       12
USER    Run = 12
USER    Cluster Rank = 35
USER    Number of conformations in this cluster = 1
USER  
USER    RMSD from reference structure       = 16.719 A
USER  
USER    Estimated Free Energy of Binding    =   +2.45 kcal/mol  [=(1)+(2)+(3)-(4)]
USER    
USER    (1) Final Intermolecular Energy     =   -4.71 kcal/mol
USER        vdW + Hbond + desolv Energy     =   -4.75 kcal/mol
USER        Electrostatic Energy            =   +0.04 kcal/mol
USER    (2) Final Total Internal Energy     =  -14.89 kcal/mol
USER    (3) Torsional Free Energy           =   +7.16 kcal/mol
USER    (4) Unbound System's Energy  [=(2)] =  -14.89 kcal/mol
USER    
USER    
USER  
USER    DPF = D:/Protein_go_brrr/autodock/final/mut_D99N/IHP/dock.dpf
USER    NEWDPF move	IHP_ideal_opt.pdbqt
USER    NEWDPF about	0.035000 0.082000 -0.065000
USER    NEWDPF tran0	-12.345263 14.298364 -7.095799
USER    NEWDPF axisangle0	-0.056183 -0.552001 0.831949 125.986050
USER    NEWDPF quaternion0	-0.050056 -0.491806 0.741226 0.454099
USER    NEWDPF dihe0	95.51 104.69 128.23 11.15 3.45 -180.00 -121.01 17.33 146.91 -3.78 44.13 -73.96 -72.63 -136.41 -177.12 55.84 113.84 -31.05 -148.50 -2.86 13.44 158.46 -43.74 171.62 
USER  
USER                              x       y       z    vdW   Elec        q     RMS 
ATOM      1  C   UNL d   1     -13.422  12.996  -6.737 -0.27 -0.02    +0.194    16.719
ATOM      2  C   UNL d   1     -13.413  14.144  -5.726 -0.12 -0.01    +0.194    16.719
ATOM      3  C   UNL d   1     -11.991  14.621  -5.422 -0.20 -0.00    +0.194    16.719
ATOM      4  C   UNL d   1     -11.186  14.950  -6.677 -0.10 -0.00    +0.194    16.719
ATOM      5  C   UNL d   1     -11.261  13.882  -7.760 -0.16 -0.01    +0.194    16.719
ATOM      6  C   UNL d   1     -12.676  13.361  -8.021 -0.19 -0.03    +0.194    16.719
ATOM      7  O   UNL d   1     -14.780  12.728  -7.095 -0.53 +0.06    -0.278    16.719
ATOM      8  P   UNL d   1     -15.414  13.530  -8.323 -0.07 -0.11    +0.473    16.719
ATOM      9  O   UNL d   1     -14.724  14.803  -8.668 -0.03 +0.03    -0.228    16.719
ATOM     10  O   UNL d   1     -15.416  12.472  -9.517 -0.08 +0.12    -0.303    16.719
ATOM     11  H   UNL d   1     -14.499  12.213  -9.725 +0.06 -0.09    +0.222    16.719
ATOM     12  O   UNL d   1     -16.961  13.650  -7.982 -0.06 +0.07    -0.303    16.719
ATOM     13  H   UNL d   1     -17.135  14.122  -7.137 +0.05 -0.04    +0.222    16.719
ATOM     14  O   UNL d   1     -14.159  15.244  -6.262 -0.10 +0.03    -0.278    16.719
ATOM     15  P   UNL d   1     -15.297  15.864  -5.322 -0.09 -0.05    +0.473    16.719
ATOM     16  O   UNL d   1     -16.606  15.141  -5.285 -0.13 +0.04    -0.228    16.719
ATOM     17  O   UNL d   1     -14.605  15.962  -3.890 -0.14 +0.02    -0.303    16.719
ATOM     18  H   UNL d   1     -13.648  16.140  -3.973 +0.04 -0.00    +0.222    16.719
ATOM     19  O   UNL d   1     -15.371  17.396  -5.746 -0.01 +0.02    -0.303    16.719
ATOM     20  H   UNL d   1     -14.486  17.804  -5.780 +0.02 -0.01    +0.222    16.719
ATOM     21  O   UNL d   1     -12.540  12.163  -8.781 -0.25 +0.07    -0.278    16.719
ATOM     22  P   UNL d   1     -12.494  12.236 -10.374 -0.15 -0.15    +0.473    16.719
ATOM     23  O   UNL d   1     -13.085  11.107 -11.149 -0.29 +0.11    -0.228    16.719
ATOM     24  O   UNL d   1     -13.157  13.656 -10.653 -0.07 +0.08    -0.303    16.719
ATOM     25  H   UNL d   1     -14.090  13.632 -10.320 +0.06 -0.05    +0.222    16.719
ATOM     26  O   UNL d   1     -10.942  12.537 -10.642 -0.22 +0.08    -0.303    16.719
ATOM     27  H   UNL d   1     -10.456  12.496  -9.793 +0.10 -0.03    +0.222    16.719
ATOM     28  O   UNL d   1     -12.094  15.845  -4.707 -0.09 -0.00    -0.278    16.719
ATOM     29  P   UNL d   1     -12.109  17.234  -5.487 +0.00 +0.00    +0.473    16.719
ATOM     30  O   UNL d   1     -12.690  17.194  -6.854 -0.01 +0.01    -0.228    16.719
ATOM     31  O   UNL d   1     -12.852  18.152  -4.408 -0.01 -0.00    -0.303    16.719
ATOM     32  H   UNL d   1     -13.793  17.867  -4.347 +0.02 -0.00    +0.222    16.719
ATOM     33  O   UNL d   1     -10.593  17.703  -5.364 -0.00 -0.02    -0.303    16.719
ATOM     34  H   UNL d   1     -10.043  17.183  -5.999 +0.03 +0.01    +0.222    16.719
ATOM     35  O   UNL d   1     -10.819  14.515  -8.959 -0.07 +0.02    -0.278    16.719
ATOM     36  P   UNL d   1      -9.265  14.564  -9.318 -0.06 -0.02    +0.473    16.719
ATOM     37  O   UNL d   1      -8.944  14.771 -10.764 -0.07 +0.02    -0.228    16.719
ATOM     38  O   UNL d   1      -8.745  15.724  -8.359 -0.03 -0.00    -0.303    16.719
ATOM     39  H   UNL d   1      -8.668  15.374  -7.445 +0.07 +0.01    +0.222    16.719
ATOM     40  O   UNL d   1      -8.718  13.233  -8.641 -0.20 -0.00    -0.303    16.719
ATOM     41  H   UNL d   1      -9.067  13.119  -7.729 +0.11 +0.00    +0.222    16.719
ATOM     42  O   UNL d   1      -9.816  15.049  -6.276 -0.08 -0.01    -0.278    16.719
ATOM     43  P   UNL d   1      -9.108  13.775  -5.628 -0.26 +0.03    +0.473    16.719
ATOM     44  O   UNL d   1      -9.792  12.460  -5.776 -0.44 +0.02    -0.228    16.719
ATOM     45  O   UNL d   1      -7.650  13.825  -6.263 -0.28 -0.06    -0.303    16.719
ATOM     46  H   UNL d   1      -7.658  14.246  -7.146 +0.09 +0.02    +0.222    16.719
ATOM     47  O   UNL d   1      -8.823  14.241  -4.121 -0.29 -0.04    -0.303    16.719
ATOM     48  H   UNL d   1      -9.464  13.805  -3.522 -0.24 -0.04    +0.222    16.719
TER
ENDMDL
MODEL       62
USER    Run = 62
USER    Cluster Rank = 36
USER    Number of conformations in this cluster = 1
USER  
USER    RMSD from reference structure       = 11.675 A
USER  
USER    Estimated Free Energy of Binding    =   +2.55 kcal/mol  [=(1)+(2)+(3)-(4)]
USER    
USER    (1) Final Intermolecular Energy     =   -4.61 kcal/mol
USER        vdW + Hbond + desolv Energy     =   -4.32 kcal/mol
USER        Electrostatic Energy            =   -0.29 kcal/mol
USER    (2) Final Total Internal Energy     =  -13.38 kcal/mol
USER    (3) Torsional Free Energy           =   +7.16 kcal/mol
USER    (4) Unbound System's Energy  [=(2)] =  -13.38 kcal/mol
USER    
USER    
USER  
USER    DPF = D:/Protein_go_brrr/autodock/final/mut_D99N/IHP/dock.dpf
USER    NEWDPF move	IHP_ideal_opt.pdbqt
USER    NEWDPF about	0.035000 0.082000 -0.065000
USER    NEWDPF tran0	-14.714409 1.367537 4.033345
USER    NEWDPF axisangle0	-0.736973 -0.674466 -0.044341 -67.693861
USER    NEWDPF quaternion0	-0.410477 -0.375661 -0.024697 -0.830529
USER    NEWDPF dihe0	74.35 124.30 82.85 93.15 -18.98 -168.88 -117.55 -54.75 160.43 35.45 -98.84 -179.05 -90.14 -52.74 180.00 63.51 118.39 -5.02 -139.53 -16.01 -175.30 154.71 140.22 144.45 
USER  
USER                              x       y       z    vdW   Elec        q     RMS 
ATOM      1  C   UNL d   1     -14.604   1.669   5.731 -0.04 +0.07    +0.194    11.675
ATOM      2  C   UNL d   1     -15.557   0.545   5.320 -0.03 +0.10    +0.194    11.675
ATOM      3  C   UNL d   1     -16.399   0.932   4.102 -0.04 +0.07    +0.194    11.675
ATOM      4  C   UNL d   1     -15.562   1.438   2.929 -0.12 +0.07    +0.194    11.675
ATOM      5  C   UNL d   1     -14.519   2.479   3.314 -0.15 +0.06    +0.194    11.675
ATOM      6  C   UNL d   1     -13.719   2.120   4.568 -0.10 +0.07    +0.194    11.675
ATOM      7  O   UNL d   1     -13.741   1.170   6.755 -0.04 -0.12    -0.278    11.675
ATOM      8  P   UNL d   1     -12.285   0.661   6.339 -0.03 +0.30    +0.473    11.675
ATOM      9  O   UNL d   1     -12.219  -0.075   5.047 -0.73 -0.31    -0.228    11.675
ATOM     10  O   UNL d   1     -11.394   1.985   6.354 -0.04 -0.08    -0.303    11.675
ATOM     11  H   UNL d   1     -11.495   2.456   5.506 +0.09 +0.06    +0.222    11.675
ATOM     12  O   UNL d   1     -11.741  -0.120   7.611 -0.67 -0.18    -0.303    11.675
ATOM     13  H   UNL d   1     -12.107  -1.029   7.691 +0.08 +0.14    +0.222    11.675
ATOM     14  O   UNL d   1     -14.790  -0.621   4.992 -0.07 -0.31    -0.278    11.675
ATOM     15  P   UNL d   1     -14.997  -1.901   5.931 +0.03 +0.53    +0.473    11.675
ATOM     16  O   UNL d   1     -16.017  -1.778   7.019 -0.01 -0.11    -0.228    11.675
ATOM     17  O   UNL d   1     -15.322  -3.081   4.911 -0.18 -0.45    -0.303    11.675
ATOM     18  H   UNL d   1     -15.519  -2.732   4.021 +0.01 +0.35    +0.222    11.675
ATOM     19  O   UNL d   1     -13.529  -2.286   6.407 -0.38 -0.47    -0.303    11.675
ATOM     20  H   UNL d   1     -12.966  -1.497   6.512 +0.04 +0.28    +0.222    11.675
ATOM     21  O   UNL d   1     -13.053   3.309   4.987 -0.09 -0.06    -0.278    11.675
ATOM     22  P   UNL d   1     -13.837   4.390   5.860 -0.04 +0.06    +0.473    11.675
ATOM     23  O   UNL d   1     -13.448   5.824   5.722 -0.13 -0.00    -0.228    11.675
ATOM     24  O   UNL d   1     -15.351   4.071   5.490 -0.03 -0.05    -0.303    11.675
ATOM     25  H   UNL d   1     -15.575   4.559   4.657 +0.04 +0.03    +0.222    11.675
ATOM     26  O   UNL d   1     -13.717   3.768   7.333 -0.06 -0.06    -0.303    11.675
ATOM     27  H   UNL d   1     -13.005   3.096   7.341 +0.08 +0.05    +0.222    11.675
ATOM     28  O   UNL d   1     -17.036  -0.247   3.629 -0.02 -0.11    -0.278    11.675
ATOM     29  P   UNL d   1     -16.376  -1.106   2.461 -0.07 +0.29    +0.473    11.675
ATOM     30  O   UNL d   1     -14.895  -1.207   2.499 -0.26 -0.33    -0.228    11.675
ATOM     31  O   UNL d   1     -17.201  -2.469   2.616 -0.02 -0.14    -0.303    11.675
ATOM     32  H   UNL d   1     -16.973  -2.877   3.483 +0.01 +0.13    +0.222    11.675
ATOM     33  O   UNL d   1     -17.020  -0.451   1.161 -0.08 -0.09    -0.303    11.675
ATOM     34  H   UNL d   1     -17.572   0.323   1.430 +0.03 +0.05    +0.222    11.675
ATOM     35  O   UNL d   1     -13.597   2.524   2.227 -0.19 -0.08    -0.278    11.675
ATOM     36  P   UNL d   1     -12.331   1.555   2.205 -0.18 +0.21    +0.473    11.675
ATOM     37  O   UNL d   1     -11.666   1.391   0.875 -0.31 -0.07    -0.228    11.675
ATOM     38  O   UNL d   1     -11.403   2.206   3.325 -0.10 -0.10    -0.303    11.675
ATOM     39  H   UNL d   1     -11.611   1.797   4.192 +0.09 +0.10    +0.222    11.675
ATOM     40  O   UNL d   1     -12.898   0.239   2.896 -0.35 -0.36    -0.303    11.675
ATOM     41  H   UNL d   1     -13.809   0.373   3.241 +0.05 +0.23    +0.222    11.675
ATOM     42  O   UNL d   1     -16.467   2.067   2.015 -0.12 -0.07    -0.278    11.675
ATOM     43  P   UNL d   1     -17.745   2.827   2.595 -0.08 +0.08    +0.473    11.675
ATOM     44  O   UNL d   1     -17.558   3.644   3.826 -0.06 -0.03    -0.228    11.675
ATOM     45  O   UNL d   1     -18.260   3.654   1.337 -0.13 -0.06    -0.303    11.675
ATOM     46  H   UNL d   1     -18.975   4.273   1.584 +0.06 +0.05    +0.222    11.675
ATOM     47  O   UNL d   1     -18.846   1.667   2.696 -0.03 -0.05    -0.303    11.675
ATOM     48  H   UNL d   1     -18.457   0.824   2.383 +0.03 +0.04    +0.222    11.675
TER
ENDMDL
MODEL        6
USER    Run = 6
USER    Cluster Rank = 37
USER    Number of conformations in this cluster = 1
USER  
USER    RMSD from reference structure       = 16.742 A
USER  
USER    Estimated Free Energy of Binding    =   +2.60 kcal/mol  [=(1)+(2)+(3)-(4)]
USER    
USER    (1) Final Intermolecular Energy     =   -4.56 kcal/mol
USER        vdW + Hbond + desolv Energy     =   -4.37 kcal/mol
USER        Electrostatic Energy            =   -0.19 kcal/mol
USER    (2) Final Total Internal Energy     =  -11.76 kcal/mol
USER    (3) Torsional Free Energy           =   +7.16 kcal/mol
USER    (4) Unbound System's Energy  [=(2)] =  -11.76 kcal/mol
USER    
USER    
USER  
USER    DPF = D:/Protein_go_brrr/autodock/final/mut_D99N/IHP/dock.dpf
USER    NEWDPF move	IHP_ideal_opt.pdbqt
USER    NEWDPF about	0.035000 0.082000 -0.065000
USER    NEWDPF tran0	-12.031648 15.499758 -5.231583
USER    NEWDPF axisangle0	0.925249 -0.109560 -0.363196 107.866567
USER    NEWDPF quaternion0	0.747908 -0.088561 -0.293583 0.588727
USER    NEWDPF dihe0	131.44 80.98 20.87 95.64 134.39 137.16 55.42 -84.61 -104.40 110.85 94.68 -38.07 -26.10 -174.44 -179.51 -95.01 -51.95 101.80 -12.58 -52.01 -3.29 -22.22 164.08 162.12 
USER  
USER                              x       y       z    vdW   Elec        q     RMS 
ATOM      1  C   UNL d   1     -10.855  16.763  -5.283 -0.03 +0.01    +0.194    16.742
ATOM      2  C   UNL d   1     -11.360  16.387  -3.889 -0.08 +0.01    +0.194    16.742
ATOM      3  C   UNL d   1     -12.876  16.184  -3.872 -0.12 +0.00    +0.194    16.742
ATOM      4  C   UNL d   1     -13.365  15.213  -4.944 -0.16 -0.01    +0.194    16.742
ATOM      5  C   UNL d   1     -12.795  15.482  -6.331 -0.09 -0.01    +0.194    16.742
ATOM      6  C   UNL d   1     -11.288  15.746  -6.340 -0.05 -0.00    +0.194    16.742
ATOM      7  O   UNL d   1      -9.425  16.765  -5.254 -0.02 -0.03    -0.278    16.742
ATOM      8  P   UNL d   1      -8.653  17.981  -5.944 +0.01 +0.04    +0.473    16.742
ATOM      9  O   UNL d   1      -9.424  19.252  -6.026 +0.00 -0.01    -0.228    16.742
ATOM     10  O   UNL d   1      -7.308  18.116  -5.097 -0.02 -0.05    -0.303    16.742
ATOM     11  H   UNL d   1      -7.455  17.777  -4.195 +0.04 +0.06    +0.222    16.742
ATOM     12  O   UNL d   1      -8.121  17.402  -7.324 -0.01 -0.01    -0.303    16.742
ATOM     13  H   UNL d   1      -8.741  16.761  -7.739 +0.03 +0.01    +0.222    16.742
ATOM     14  O   UNL d   1     -10.731  15.167  -3.478 -0.17 -0.00    -0.278    16.742
ATOM     15  P   UNL d   1      -9.236  15.285  -2.917 -0.15 +0.12    +0.473    16.742
ATOM     16  O   UNL d   1      -8.175  14.546  -3.670 -0.27 -0.09    -0.228    16.742
ATOM     17  O   UNL d   1      -8.969  16.855  -2.855 -0.07 -0.11    -0.303    16.742
ATOM     18  H   UNL d   1      -8.818  17.221  -3.747 +0.05 +0.06    +0.222    16.742
ATOM     19  O   UNL d   1      -9.361  14.922  -1.374 -0.26 -0.13    -0.303    16.742
ATOM     20  H   UNL d   1     -10.028  14.227  -1.220 -0.37 -0.00    +0.222    16.742
ATOM     21  O   UNL d   1     -10.975  16.308  -7.613 -0.01 +0.01    -0.278    16.742
ATOM     22  P   UNL d   1     -10.231  15.419  -8.709 -0.01 -0.02    +0.473    16.742
ATOM     23  O   UNL d   1      -9.326  16.105  -9.676 -0.02 +0.01    -0.228    16.742
ATOM     24  O   UNL d   1      -9.528  14.312  -7.808 -0.11 +0.00    -0.303    16.742
ATOM     25  H   UNL d   1     -10.236  13.737  -7.418 +0.11 -0.01    +0.222    16.742
ATOM     26  O   UNL d   1     -11.452  14.600  -9.348 -0.05 +0.03    -0.303    16.742
ATOM     27  H   UNL d   1     -12.093  14.376  -8.643 +0.07 -0.02    +0.222    16.742
ATOM     28  O   UNL d   1     -13.213  15.576  -2.631 -0.12 -0.01    -0.278    16.742
ATOM     29  P   UNL d   1     -13.527  16.474  -1.354 -0.06 +0.02    +0.473    16.742
ATOM     30  O   UNL d   1     -12.651  16.242  -0.177 -0.08 -0.02    -0.228    16.742
ATOM     31  O   UNL d   1     -13.480  17.930  -2.018 -0.01 -0.01    -0.303    16.742
ATOM     32  H   UNL d   1     -14.401  18.275  -2.082 +0.02 +0.00    +0.222    16.742
ATOM     33  O   UNL d   1     -15.087  16.231  -1.149 -0.10 +0.01    -0.303    16.742
ATOM     34  H   UNL d   1     -15.489  15.980  -2.017 +0.03 -0.01    +0.222    16.742
ATOM     35  O   UNL d   1     -13.016  14.288  -7.079 -0.10 +0.03    -0.278    16.742
ATOM     36  P   UNL d   1     -12.278  12.934  -6.670 -0.26 -0.04    +0.473    16.742
ATOM     37  O   UNL d   1     -11.242  13.063  -5.598 -0.37 +0.01    -0.228    16.742
ATOM     38  O   UNL d   1     -13.507  11.998  -6.283 -0.88 +0.04    -0.303    16.742
ATOM     39  H   UNL d   1     -13.165  11.150  -5.925 -0.41 -0.09    +0.222    16.742
ATOM     40  O   UNL d   1     -11.796  12.372  -8.077 -0.15 +0.04    -0.303    16.742
ATOM     41  H   UNL d   1     -11.082  12.925  -8.465 +0.11 -0.02    +0.222    16.742
ATOM     42  O   UNL d   1     -14.785  15.376  -5.034 -0.15 +0.03    -0.278    16.742
ATOM     43  P   UNL d   1     -15.383  16.844  -5.210 -0.05 -0.03    +0.473    16.742
ATOM     44  O   UNL d   1     -16.637  16.984  -6.004 -0.03 +0.02    -0.228    16.742
ATOM     45  O   UNL d   1     -15.504  17.354  -3.708 -0.04 +0.01    -0.303    16.742
ATOM     46  H   UNL d   1     -14.909  16.857  -3.112 +0.03 -0.01    +0.222    16.742
ATOM     47  O   UNL d   1     -14.130  17.689  -5.742 -0.01 +0.01    -0.303    16.742
ATOM     48  H   UNL d   1     -14.434  18.323  -6.425 +0.01 -0.01    +0.222    16.742
TER
ENDMDL
MODEL        4
USER    Run = 4
USER    Cluster Rank = 38
USER    Number of conformations in this cluster = 1
USER  
USER    RMSD from reference structure       = 17.400 A
USER  
USER    Estimated Free Energy of Binding    =   +2.63 kcal/mol  [=(1)+(2)+(3)-(4)]
USER    
USER    (1) Final Intermolecular Energy     =   -4.53 kcal/mol
USER        vdW + Hbond + desolv Energy     =   -3.92 kcal/mol
USER        Electrostatic Energy            =   -0.61 kcal/mol
USER    (2) Final Total Internal Energy     =  -13.97 kcal/mol
USER    (3) Torsional Free Energy           =   +7.16 kcal/mol
USER    (4) Unbound System's Energy  [=(2)] =  -13.97 kcal/mol
USER    
USER    
USER  
USER    DPF = D:/Protein_go_brrr/autodock/final/mut_D99N/IHP/dock.dpf
USER    NEWDPF move	IHP_ideal_opt.pdbqt
USER    NEWDPF about	0.035000 0.082000 -0.065000
USER    NEWDPF tran0	-14.126750 14.487103 4.577765
USER    NEWDPF axisangle0	-0.646085 -0.536656 0.542747 -161.910744
USER    NEWDPF quaternion0	-0.638052 -0.529984 0.535999 -0.157204
USER    NEWDPF dihe0	180.00 84.79 92.69 114.26 -23.66 173.05 -107.98 -87.14 8.10 100.46 112.23 142.45 -67.67 126.09 -153.32 17.18 -6.59 158.55 6.58 -7.01 -52.80 13.39 151.83 -22.70 
USER  
USER                              x       y       z    vdW   Elec        q     RMS 
ATOM      1  C   UNL d   1     -15.421  15.600   4.315 -0.01 -0.04    +0.194    17.400
ATOM      2  C   UNL d   1     -15.346  14.994   5.717 -0.04 -0.08    +0.194    17.400
ATOM      3  C   UNL d   1     -15.048  13.494   5.671 -0.06 -0.09    +0.194    17.400
ATOM      4  C   UNL d   1     -13.824  13.149   4.826 -0.12 -0.07    +0.194    17.400
ATOM      5  C   UNL d   1     -13.802  13.825   3.461 -0.09 -0.04    +0.194    17.400
ATOM      6  C   UNL d   1     -14.160  15.312   3.500 -0.03 -0.03    +0.194    17.400
ATOM      7  O   UNL d   1     -15.528  17.020   4.448 -0.00 +0.04    -0.278    17.400
ATOM      8  P   UNL d   1     -16.861  17.732   3.932 +0.01 -0.04    +0.473    17.400
ATOM      9  O   UNL d   1     -17.709  16.907   3.029 -0.00 +0.01    -0.228    17.400
ATOM     10  O   UNL d   1     -17.610  18.168   5.271 +0.00 +0.03    -0.303    17.400
ATOM     11  H   UNL d   1     -16.966  18.228   6.001 +0.00 -0.03    +0.222    17.400
ATOM     12  O   UNL d   1     -16.383  19.131   3.348 -0.00 +0.02    -0.303    17.400
ATOM     13  H   UNL d   1     -15.535  19.072   2.852 +0.00 -0.01    +0.222    17.400
ATOM     14  O   UNL d   1     -14.300  15.644   6.451 -0.09 +0.21    -0.278    17.400
ATOM     15  P   UNL d   1     -14.712  16.304   7.851 -0.03 -0.45    +0.473    17.400
ATOM     16  O   UNL d   1     -13.631  17.015   8.602 -0.09 +0.28    -0.228    17.400
ATOM     17  O   UNL d   1     -15.938  17.254   7.486 -0.01 +0.11    -0.303    17.400
ATOM     18  H   UNL d   1     -16.112  17.250   6.525 +0.01 -0.06    +0.222    17.400
ATOM     19  O   UNL d   1     -15.440  15.132   8.643 -0.04 +0.38    -0.303    17.400
ATOM     20  H   UNL d   1     -14.881  14.336   8.703 -0.51 -0.54    +0.222    17.400
ATOM     21  O   UNL d   1     -14.430  15.706   2.157 -0.02 +0.02    -0.278    17.400
ATOM     22  P   UNL d   1     -14.254  17.233   1.729 +0.01 -0.01    +0.473    17.400
ATOM     23  O   UNL d   1     -15.428  17.940   1.139 -0.01 +0.00    -0.228    17.400
ATOM     24  O   UNL d   1     -13.688  17.883   3.068 -0.00 +0.01    -0.303    17.400
ATOM     25  H   UNL d   1     -14.458  18.186   3.613 +0.01 -0.02    +0.222    17.400
ATOM     26  O   UNL d   1     -12.941  17.166   0.813 -0.01 -0.02    -0.303    17.400
ATOM     27  H   UNL d   1     -12.614  16.243   0.786 +0.06 +0.02    +0.222    17.400
ATOM     28  O   UNL d   1     -14.724  13.080   6.992 -0.11 +0.25    -0.278    17.400
ATOM     29  P   UNL d   1     -15.538  11.902   7.689 -0.05 -0.27    +0.473    17.400
ATOM     30  O   UNL d   1     -16.745  11.438   6.958 -0.02 +0.05    -0.228    17.400
ATOM     31  O   UNL d   1     -14.362  10.838   7.901 -0.16 +0.14    -0.303    17.400
ATOM     32  H   UNL d   1     -13.948  10.649   7.027 +0.09 -0.08    +0.222    17.400
ATOM     33  O   UNL d   1     -15.762  12.475   9.158 -0.08 +0.28    -0.303    17.400
ATOM     34  H   UNL d   1     -15.023  13.094   9.377 -0.38 -0.54    +0.222    17.400
ATOM     35  O   UNL d   1     -12.455  13.729   3.004 -0.15 +0.03    -0.278    17.400
ATOM     36  P   UNL d   1     -11.337  14.710   3.582 -0.20 -0.01    +0.473    17.400
ATOM     37  O   UNL d   1     -11.450  15.029   5.038 -0.25 +0.09    -0.228    17.400
ATOM     38  O   UNL d   1      -9.997  13.949   3.181 -0.26 -0.09    -0.303    17.400
ATOM     39  H   UNL d   1      -9.977  13.076   3.628 +0.09 +0.02    +0.222    17.400
ATOM     40  O   UNL d   1     -11.401  15.933   2.567 -0.10 -0.05    -0.303    17.400
ATOM     41  H   UNL d   1     -12.295  16.341   2.544 +0.06 +0.01    +0.222    17.400
ATOM     42  O   UNL d   1     -13.863  11.737   4.596 -0.10 +0.07    -0.278    17.400
ATOM     43  P   UNL d   1     -12.530  10.885   4.800 -0.17 -0.11    +0.473    17.400
ATOM     44  O   UNL d   1     -12.419   9.597   4.060 -0.35 +0.03    -0.228    17.400
ATOM     45  O   UNL d   1     -11.388  11.936   4.452 -0.19 +0.09    -0.303    17.400
ATOM     46  H   UNL d   1     -11.602  12.826   4.798 -0.21 -0.12    +0.222    17.400
ATOM     47  O   UNL d   1     -12.402  10.780   6.394 -0.34 +0.12    -0.303    17.400
ATOM     48  H   UNL d   1     -12.674  11.632   6.796 -0.01 -0.15    +0.222    17.400
TER
ENDMDL
MODEL       30
USER    Run = 30
USER    Cluster Rank = 39
USER    Number of conformations in this cluster = 1
USER  
USER    RMSD from reference structure       = 21.630 A
USER  
USER    Estimated Free Energy of Binding    =   +2.70 kcal/mol  [=(1)+(2)+(3)-(4)]
USER    
USER    (1) Final Intermolecular Energy     =   -4.46 kcal/mol
USER        vdW + Hbond + desolv Energy     =   -4.16 kcal/mol
USER        Electrostatic Energy            =   -0.30 kcal/mol
USER    (2) Final Total Internal Energy     =  -12.64 kcal/mol
USER    (3) Torsional Free Energy           =   +7.16 kcal/mol
USER    (4) Unbound System's Energy  [=(2)] =  -12.64 kcal/mol
USER    
USER    
USER  
USER    DPF = D:/Protein_go_brrr/autodock/final/mut_D99N/IHP/dock.dpf
USER    NEWDPF move	IHP_ideal_opt.pdbqt
USER    NEWDPF about	0.035000 0.082000 -0.065000
USER    NEWDPF tran0	6.068706 13.903101 19.219554
USER    NEWDPF axisangle0	-0.628981 0.770701 0.101992 110.983271
USER    NEWDPF quaternion0	-0.518308 0.635091 0.084046 0.566527
USER    NEWDPF dihe0	143.95 144.74 132.53 -38.22 -35.57 175.56 40.42 -148.87 -88.42 120.58 -147.02 84.95 -72.81 90.39 -144.92 -124.06 -2.51 31.72 19.68 -22.51 -61.75 45.20 142.31 -169.37 
USER  
USER                              x       y       z    vdW   Elec        q     RMS 
ATOM      1  C   UNL d   1       6.155  12.180  19.124 -0.16 -0.02    +0.194    21.630
ATOM      2  C   UNL d   1       6.682  12.938  17.903 -0.10 -0.01    +0.194    21.630
ATOM      3  C   UNL d   1       5.763  14.099  17.517 -0.12 -0.01    +0.194    21.630
ATOM      4  C   UNL d   1       5.450  15.032  18.684 -0.07 -0.02    +0.194    21.630
ATOM      5  C   UNL d   1       5.030  14.311  19.959 -0.09 -0.02    +0.194    21.630
ATOM      6  C   UNL d   1       5.913  13.112  20.312 -0.09 -0.03    +0.194    21.630
ATOM      7  O   UNL d   1       7.147  11.231  19.522 -0.10 +0.08    -0.278    21.630
ATOM      8  P   UNL d   1       6.924   9.696  19.142 -0.20 -0.31    +0.473    21.630
ATOM      9  O   UNL d   1       5.514   9.315  18.854 -0.91 +0.11    -0.228    21.630
ATOM     10  O   UNL d   1       7.905   9.456  17.907 -0.16 +0.12    -0.303    21.630
ATOM     11  H   UNL d   1       8.210  10.315  17.561 +0.05 -0.05    +0.222    21.630
ATOM     12  O   UNL d   1       7.640   8.876  20.300 -0.06 +0.38    -0.303    21.630
ATOM     13  H   UNL d   1       7.014   8.543  20.981 -0.35 -0.55    +0.222    21.630
ATOM     14  O   UNL d   1       7.980  13.464  18.205 -0.03 +0.02    -0.278    21.630
ATOM     15  P   UNL d   1       9.222  12.773  17.465 -0.02 -0.04    +0.473    21.630
ATOM     16  O   UNL d   1      10.369  13.664  17.105 -0.01 +0.01    -0.228    21.630
ATOM     17  O   UNL d   1       9.644  11.587  18.442 -0.01 +0.04    -0.303    21.630
ATOM     18  H   UNL d   1       8.861  11.178  18.857 +0.04 -0.05    +0.222    21.630
ATOM     19  O   UNL d   1       8.568  11.973  16.256 -0.07 +0.02    -0.303    21.630
ATOM     20  H   UNL d   1       8.444  11.031  16.472 +0.04 -0.02    +0.222    21.630
ATOM     21  O   UNL d   1       5.210  12.359  21.297 -0.09 +0.06    -0.278    21.630
ATOM     22  P   UNL d   1       5.987  11.266  22.161 -0.04 -0.17    +0.473    21.630
ATOM     23  O   UNL d   1       5.606   9.833  21.993 -0.14 +0.19    -0.228    21.630
ATOM     24  O   UNL d   1       7.505  11.597  21.817 -0.01 +0.09    -0.303    21.630
ATOM     25  H   UNL d   1       7.823  10.934  21.153 +0.04 -0.08    +0.222    21.630
ATOM     26  O   UNL d   1       5.845  11.861  23.643 -0.01 +0.07    -0.303    21.630
ATOM     27  H   UNL d   1       5.320  12.686  23.610 +0.02 -0.04    +0.222    21.630
ATOM     28  O   UNL d   1       6.460  14.899  16.570 -0.04 +0.01    -0.278    21.630
ATOM     29  P   UNL d   1       5.656  15.818  15.548 -0.02 -0.03    +0.473    21.630
ATOM     30  O   UNL d   1       6.317  16.048  14.237 -0.02 +0.01    -0.228    21.630
ATOM     31  O   UNL d   1       4.251  15.052  15.528 -0.08 +0.03    -0.303    21.630
ATOM     32  H   UNL d   1       3.666  15.452  16.211 +0.04 -0.04    +0.222    21.630
ATOM     33  O   UNL d   1       5.342  17.105  16.431 -0.01 +0.02    -0.303    21.630
ATOM     34  H   UNL d   1       4.478  16.974  16.893 +0.02 -0.02    +0.222    21.630
ATOM     35  O   UNL d   1       5.179  15.265  21.009 -0.02 +0.03    -0.278    21.630
ATOM     36  P   UNL d   1       6.582  15.436  21.748 -0.00 -0.04    +0.473    21.630
ATOM     37  O   UNL d   1       7.785  15.415  20.860 -0.01 +0.02    -0.228    21.630
ATOM     38  O   UNL d   1       6.372  16.805  22.534 -0.00 +0.02    -0.303    21.630
ATOM     39  H   UNL d   1       7.249  17.193  22.744 +0.00 -0.01    +0.222    21.630
ATOM     40  O   UNL d   1       6.504  14.327  22.885 -0.00 +0.03    -0.303    21.630
ATOM     41  H   UNL d   1       6.694  13.429  22.532 +0.02 -0.03    +0.222    21.630
ATOM     42  O   UNL d   1       4.345  15.847  18.278 -0.05 +0.03    -0.278    21.630
ATOM     43  P   UNL d   1       2.872  15.238  18.344 -0.06 -0.10    +0.473    21.630
ATOM     44  O   UNL d   1       2.220  15.161  19.681 -0.14 +0.04    -0.228    21.630
ATOM     45  O   UNL d   1       2.082  16.123  17.283 -0.10 +0.09    -0.303    21.630
ATOM     46  H   UNL d   1       1.461  15.580  16.756 -0.50 -0.12    +0.222    21.630
ATOM     47  O   UNL d   1       3.017  13.846  17.563 -0.05 +0.07    -0.303    21.630
ATOM     48  H   UNL d   1       2.741  13.968  16.631 -0.46 -0.10    +0.222    21.630
TER
ENDMDL
MODEL       89
USER    Run = 89
USER    Cluster Rank = 40
USER    Number of conformations in this cluster = 1
USER  
USER    RMSD from reference structure       = 11.789 A
USER  
USER    Estimated Free Energy of Binding    =   +2.74 kcal/mol  [=(1)+(2)+(3)-(4)]
USER    
USER    (1) Final Intermolecular Energy     =   -4.42 kcal/mol
USER        vdW + Hbond + desolv Energy     =   -4.35 kcal/mol
USER        Electrostatic Energy            =   -0.07 kcal/mol
USER    (2) Final Total Internal Energy     =  -14.40 kcal/mol
USER    (3) Torsional Free Energy           =   +7.16 kcal/mol
USER    (4) Unbound System's Energy  [=(2)] =  -14.40 kcal/mol
USER    
USER    
USER  
USER    DPF = D:/Protein_go_brrr/autodock/final/mut_D99N/IHP/dock.dpf
USER    NEWDPF move	IHP_ideal_opt.pdbqt
USER    NEWDPF about	0.035000 0.082000 -0.065000
USER    NEWDPF tran0	14.018623 1.710367 3.387727
USER    NEWDPF axisangle0	0.759401 -0.358524 0.542927 103.916629
USER    NEWDPF quaternion0	0.598076 -0.282360 0.427589 0.616235
USER    NEWDPF dihe0	-91.97 22.84 -172.62 -11.21 24.62 -135.21 20.46 -108.38 -177.45 26.01 179.87 178.62 58.20 180.00 -51.06 -104.84 95.03 159.63 27.41 19.36 -179.11 25.39 10.42 -179.03 
USER  
USER                              x       y       z    vdW   Elec        q     RMS 
ATOM      1  C   UNL d   1      15.125   1.091   4.561 -0.17 +0.00    +0.194    11.789
ATOM      2  C   UNL d   1      14.063   2.052   5.097 -0.16 +0.01    +0.194    11.789
ATOM      3  C   UNL d   1      13.871   3.257   4.173 -0.12 +0.02    +0.194    11.789
ATOM      4  C   UNL d   1      13.614   2.865   2.720 -0.11 +0.01    +0.194    11.789
ATOM      5  C   UNL d   1      14.581   1.821   2.178 -0.19 +0.00    +0.194    11.789
ATOM      6  C   UNL d   1      14.821   0.646   3.129 -0.12 -0.00    +0.194    11.789
ATOM      7  O   UNL d   1      15.122  -0.080   5.380 -0.24 -0.00    -0.278    11.789
ATOM      8  P   UNL d   1      16.166  -0.166   6.586 -0.11 +0.03    +0.473    11.789
ATOM      9  O   UNL d   1      15.570  -0.070   7.946 -0.57 -0.06    -0.228    11.789
ATOM     10  O   UNL d   1      16.936  -1.541   6.334 -0.16 +0.01    -0.303    11.789
ATOM     11  H   UNL d   1      17.854  -1.356   6.063 +0.06 -0.00    +0.222    11.789
ATOM     12  O   UNL d   1      17.284   0.909   6.241 -0.02 -0.01    -0.303    11.789
ATOM     13  H   UNL d   1      17.325   1.129   5.283 +0.04 +0.00    +0.222    11.789
ATOM     14  O   UNL d   1      12.816   1.356   5.206 -0.27 -0.01    -0.278    11.789
ATOM     15  P   UNL d   1      11.809   1.865   6.343 -0.25 +0.15    +0.473    11.789
ATOM     16  O   UNL d   1      11.341   0.843   7.332 -0.35 -0.08    -0.228    11.789
ATOM     17  O   UNL d   1      12.579   3.080   7.027 -0.12 -0.13    -0.303    11.789
ATOM     18  H   UNL d   1      12.349   3.927   6.600 +0.07 +0.09    +0.222    11.789
ATOM     19  O   UNL d   1      10.660   2.623   5.545 -0.30 -0.12    -0.303    11.789
ATOM     20  H   UNL d   1      10.977   3.466   5.172 +0.11 +0.08    +0.222    11.789
ATOM     21  O   UNL d   1      15.974  -0.042   2.651 -0.13 +0.00    -0.278    11.789
ATOM     22  P   UNL d   1      17.428   0.543   2.952 -0.02 -0.00    +0.473    11.789
ATOM     23  O   UNL d   1      17.548   1.990   3.293 -0.01 -0.00    -0.228    11.789
ATOM     24  O   UNL d   1      17.954  -0.454   4.075 -0.03 +0.00    -0.303    11.789
ATOM     25  H   UNL d   1      17.208  -0.634   4.702 +0.07 -0.01    +0.222    11.789
ATOM     26  O   UNL d   1      18.248   0.054   1.664 -0.02 +0.01    -0.303    11.789
ATOM     27  H   UNL d   1      17.757   0.305   0.855 +0.05 -0.01    +0.222    11.789
ATOM     28  O   UNL d   1      12.695   3.936   4.595 -0.11 -0.04    -0.278    11.789
ATOM     29  P   UNL d   1      12.680   5.525   4.706 -0.03 +0.06    +0.473    11.789
ATOM     30  O   UNL d   1      12.148   6.073   5.980 -0.04 -0.05    -0.228    11.789
ATOM     31  O   UNL d   1      14.210   5.843   4.361 -0.01 -0.02    -0.303    11.789
ATOM     32  H   UNL d   1      14.355   5.683   3.400 +0.02 +0.01    +0.222    11.789
ATOM     33  O   UNL d   1      11.924   5.946   3.370 -0.06 -0.02    -0.303    11.789
ATOM     34  H   UNL d   1      12.335   5.473   2.605 -0.02 +0.01    +0.222    11.789
ATOM     35  O   UNL d   1      13.964   1.293   1.006 -0.24 -0.00    -0.278    11.789
ATOM     36  P   UNL d   1      14.842   0.952  -0.282 -0.16 -0.02    +0.473    11.789
ATOM     37  O   UNL d   1      14.479  -0.312  -0.993 -0.33 +0.03    -0.228    11.789
ATOM     38  O   UNL d   1      14.661   2.271  -1.157 -0.21 -0.01    -0.303    11.789
ATOM     39  H   UNL d   1      15.520   2.743  -1.207 +0.04 +0.01    +0.222    11.789
ATOM     40  O   UNL d   1      16.326   1.065   0.279 -0.08 +0.01    -0.303    11.789
ATOM     41  H   UNL d   1      16.354   1.535   1.142 +0.06 -0.00    +0.222    11.789
ATOM     42  O   UNL d   1      13.789   4.049   1.935 -0.09 -0.01    -0.278    11.789
ATOM     43  P   UNL d   1      15.257   4.650   1.762 -0.02 +0.01    +0.473    11.789
ATOM     44  O   UNL d   1      15.373   6.107   1.472 -0.01 -0.01    -0.228    11.789
ATOM     45  O   UNL d   1      15.981   4.193   3.103 -0.01 -0.01    -0.303    11.789
ATOM     46  H   UNL d   1      16.621   3.472   2.937 +0.02 +0.00    +0.222    11.789
ATOM     47  O   UNL d   1      15.927   3.674   0.681 -0.02 -0.00    -0.303    11.789
ATOM     48  H   UNL d   1      15.292   2.965   0.449 +0.05 +0.00    +0.222    11.789
TER
ENDMDL
MODEL       53
USER    Run = 53
USER    Cluster Rank = 41
USER    Number of conformations in this cluster = 1
USER  
USER    RMSD from reference structure       = 21.502 A
USER  
USER    Estimated Free Energy of Binding    =   +2.76 kcal/mol  [=(1)+(2)+(3)-(4)]
USER    
USER    (1) Final Intermolecular Energy     =   -4.40 kcal/mol
USER        vdW + Hbond + desolv Energy     =   -3.86 kcal/mol
USER        Electrostatic Energy            =   -0.55 kcal/mol
USER    (2) Final Total Internal Energy     =  -12.71 kcal/mol
USER    (3) Torsional Free Energy           =   +7.16 kcal/mol
USER    (4) Unbound System's Energy  [=(2)] =  -12.71 kcal/mol
USER    
USER    
USER  
USER    DPF = D:/Protein_go_brrr/autodock/final/mut_D99N/IHP/dock.dpf
USER    NEWDPF move	IHP_ideal_opt.pdbqt
USER    NEWDPF about	0.035000 0.082000 -0.065000
USER    NEWDPF tran0	-11.405035 16.190243 -15.130210
USER    NEWDPF axisangle0	0.126244 0.232154 -0.964452 -172.471396
USER    NEWDPF quaternion0	0.125971 0.231654 -0.962371 -0.065652
USER    NEWDPF dihe0	102.35 114.84 46.04 75.92 -74.22 2.72 -124.00 -2.09 51.34 -8.01 82.71 -98.86 -75.63 -61.35 -78.70 17.30 -142.72 107.52 -149.16 -4.05 57.21 -17.79 -53.08 163.31 
USER  
USER                              x       y       z    vdW   Elec        q     RMS 
ATOM      1  C   UNL d   1     -12.939  16.524 -14.410 -0.00 -0.03    +0.194    21.502
ATOM      2  C   UNL d   1     -11.812  17.491 -14.042 +0.00 -0.02    +0.194    21.502
ATOM      3  C   UNL d   1     -10.504  16.751 -13.750 -0.01 -0.02    +0.194    21.502
ATOM      4  C   UNL d   1     -10.098  15.786 -14.861 -0.03 -0.03    +0.194    21.502
ATOM      5  C   UNL d   1     -11.226  14.881 -15.340 -0.07 -0.06    +0.194    21.502
ATOM      6  C   UNL d   1     -12.550  15.610 -15.573 -0.01 -0.05    +0.194    21.502
ATOM      7  O   UNL d   1     -14.067  17.295 -14.832 +0.00 +0.03    -0.278    21.502
ATOM      8  P   UNL d   1     -14.176  17.697 -16.375 +0.00 -0.05    +0.473    21.502
ATOM      9  O   UNL d   1     -12.883  17.732 -17.111 +0.00 +0.02    -0.228    21.502
ATOM     10  O   UNL d   1     -15.214  16.646 -16.976 +0.00 +0.04    -0.303    21.502
ATOM     11  H   UNL d   1     -14.904  15.739 -16.794 +0.01 -0.04    +0.222    21.502
ATOM     12  O   UNL d   1     -15.020  19.044 -16.391 +0.00 +0.02    -0.303    21.502
ATOM     13  H   UNL d   1     -14.531  19.810 -16.014 +0.00 -0.01    +0.222    21.502
ATOM     14  O   UNL d   1     -11.593  18.391 -15.135 +0.00 +0.02    -0.278    21.502
ATOM     15  P   UNL d   1     -11.610  19.954 -14.789 +0.00 -0.02    +0.473    21.502
ATOM     16  O   UNL d   1     -11.986  20.329 -13.390 +0.00 +0.01    -0.228    21.502
ATOM     17  O   UNL d   1     -10.153  20.456 -15.193 +0.00 +0.01    -0.303    21.502
ATOM     18  H   UNL d   1      -9.464  19.882 -14.808 +0.00 -0.01    +0.222    21.502
ATOM     19  O   UNL d   1     -12.501  20.604 -15.936 +0.00 +0.01    -0.303    21.502
ATOM     20  H   UNL d   1     -13.025  19.933 -16.410 +0.00 -0.01    +0.222    21.502
ATOM     21  O   UNL d   1     -13.560  14.609 -15.674 -0.02 +0.10    -0.278    21.502
ATOM     22  P   UNL d   1     -13.302  13.312 -16.566 -0.04 -0.38    +0.473    21.502
ATOM     23  O   UNL d   1     -12.778  13.501 -17.949 -0.07 +0.16    -0.228    21.502
ATOM     24  O   UNL d   1     -12.372  12.441 -15.612 -0.15 +0.36    -0.303    21.502
ATOM     25  H   UNL d   1     -11.674  12.013 -16.170 -0.40 -0.37    +0.222    21.502
ATOM     26  O   UNL d   1     -14.707  12.549 -16.444 -0.07 +0.24    -0.303    21.502
ATOM     27  H   UNL d   1     -14.626  11.659 -16.844 -0.11 -0.29    +0.222    21.502
ATOM     28  O   UNL d   1      -9.467  17.721 -13.694 -0.00 +0.02    -0.278    21.502
ATOM     29  P   UNL d   1      -9.049  18.374 -12.303 +0.00 -0.02    +0.473    21.502
ATOM     30  O   UNL d   1      -9.933  18.052 -11.153 -0.00 +0.01    -0.228    21.502
ATOM     31  O   UNL d   1      -7.529  17.882 -12.209 +0.00 +0.01    -0.303    21.502
ATOM     32  H   UNL d   1      -7.523  16.916 -12.015 +0.01 -0.01    +0.222    21.502
ATOM     33  O   UNL d   1      -8.898  19.911 -12.687 +0.00 +0.01    -0.303    21.502
ATOM     34  H   UNL d   1      -9.749  20.231 -13.073 +0.00 -0.01    +0.222    21.502
ATOM     35  O   UNL d   1     -10.801  14.368 -16.601 -0.07 +0.10    -0.278    21.502
ATOM     36  P   UNL d   1      -9.731  13.188 -16.671 -0.08 -0.17    +0.473    21.502
ATOM     37  O   UNL d   1      -8.319  13.612 -16.928 -0.33 +0.03    -0.228    21.502
ATOM     38  O   UNL d   1      -9.952  12.463 -15.271 -0.43 +0.15    -0.303    21.502
ATOM     39  H   UNL d   1     -10.420  13.075 -14.663 -0.37 -0.15    +0.222    21.502
ATOM     40  O   UNL d   1     -10.389  12.194 -17.725 -0.17 +0.26    -0.303    21.502
ATOM     41  H   UNL d   1     -11.329  12.004 -17.508 -0.55 -0.41    +0.222    21.502
ATOM     42  O   UNL d   1      -9.077  14.940 -14.323 -0.06 +0.05    -0.278    21.502
ATOM     43  P   UNL d   1      -9.351  14.181 -12.946 -0.08 -0.13    +0.473    21.502
ATOM     44  O   UNL d   1      -8.621  12.905 -12.708 -0.24 +0.08    -0.228    21.502
ATOM     45  O   UNL d   1      -9.061  15.309 -11.862 -0.03 +0.04    -0.303    21.502
ATOM     46  H   UNL d   1      -8.947  16.186 -12.280 +0.02 -0.02    +0.222    21.502
ATOM     47  O   UNL d   1     -10.950  14.083 -12.894 -0.08 +0.12    -0.303    21.502
ATOM     48  H   UNL d   1     -11.247  13.338 -13.457 -0.44 -0.16    +0.222    21.502
TER
ENDMDL
MODEL       65
USER    Run = 65
USER    Cluster Rank = 42
USER    Number of conformations in this cluster = 1
USER  
USER    RMSD from reference structure       = 17.234 A
USER  
USER    Estimated Free Energy of Binding    =   +2.77 kcal/mol  [=(1)+(2)+(3)-(4)]
USER    
USER    (1) Final Intermolecular Energy     =   -4.39 kcal/mol
USER        vdW + Hbond + desolv Energy     =   -4.38 kcal/mol
USER        Electrostatic Energy            =   -0.01 kcal/mol
USER    (2) Final Total Internal Energy     =  -13.99 kcal/mol
USER    (3) Torsional Free Energy           =   +7.16 kcal/mol
USER    (4) Unbound System's Energy  [=(2)] =  -13.99 kcal/mol
USER    
USER    
USER  
USER    DPF = D:/Protein_go_brrr/autodock/final/mut_D99N/IHP/dock.dpf
USER    NEWDPF move	IHP_ideal_opt.pdbqt
USER    NEWDPF about	0.035000 0.082000 -0.065000
USER    NEWDPF tran0	3.518637 15.792301 11.299949
USER    NEWDPF axisangle0	0.417985 0.193700 0.887564 -126.088057
USER    NEWDPF quaternion0	0.372573 0.172656 0.791134 -0.453306
USER    NEWDPF dihe0	-179.88 105.98 119.54 108.70 -9.36 -172.54 -149.81 -149.86 102.27 -41.31 27.02 -127.81 113.71 97.69 -29.10 107.18 160.24 -72.05 45.45 -5.12 175.55 -3.18 19.87 -156.28 
USER  
USER                              x       y       z    vdW   Elec        q     RMS 
ATOM      1  C   UNL d   1       4.241  17.271  11.824 -0.04 -0.01    +0.194    17.234
ATOM      2  C   UNL d   1       4.828  16.665  10.548 -0.09 -0.01    +0.194    17.234
ATOM      3  C   UNL d   1       5.010  15.151  10.672 -0.16 -0.02    +0.194    17.234
ATOM      4  C   UNL d   1       3.744  14.428  11.126 -0.22 -0.03    +0.194    17.234
ATOM      5  C   UNL d   1       3.061  15.067  12.328 -0.14 -0.02    +0.194    17.234
ATOM      6  C   UNL d   1       2.935  16.589  12.231 -0.08 -0.01    +0.194    17.234
ATOM      7  O   UNL d   1       3.943  18.646  11.569 -0.02 +0.01    -0.278    17.234
ATOM      8  P   UNL d   1       5.148  19.694  11.551 -0.00 -0.01    +0.473    17.234
ATOM      9  O   UNL d   1       4.824  21.018  10.952 -0.00 +0.00    -0.228    17.234
ATOM     10  O   UNL d   1       5.600  19.789  13.078 -0.00 +0.01    -0.303    17.234
ATOM     11  H   UNL d   1       5.317  18.985  13.553 +0.00 -0.01    +0.222    17.234
ATOM     12  O   UNL d   1       6.365  18.913  10.892 -0.00 +0.01    -0.303    17.234
ATOM     13  H   UNL d   1       6.179  18.614   9.973 +0.01 -0.00    +0.222    17.234
ATOM     14  O   UNL d   1       3.940  16.930   9.454 -0.04 -0.00    -0.278    17.234
ATOM     15  P   UNL d   1       4.580  17.637   8.168 -0.04 +0.00    +0.473    17.234
ATOM     16  O   UNL d   1       3.912  17.376   6.855 -0.19 -0.01    -0.228    17.234
ATOM     17  O   UNL d   1       4.608  19.184   8.550 -0.03 -0.00    -0.303    17.234
ATOM     18  H   UNL d   1       4.610  19.307   9.519 +0.02 -0.00    +0.222    17.234
ATOM     19  O   UNL d   1       6.125  17.263   8.238 -0.04 +0.01    -0.303    17.234
ATOM     20  H   UNL d   1       6.259  16.309   8.384 +0.06 -0.01    +0.222    17.234
ATOM     21  O   UNL d   1       2.606  17.059  13.537 -0.02 +0.02    -0.278    17.234
ATOM     22  P   UNL d   1       3.721  17.069  14.678 -0.01 -0.04    +0.473    17.234
ATOM     23  O   UNL d   1       5.093  16.602  14.327 -0.02 +0.01    -0.228    17.234
ATOM     24  O   UNL d   1       3.640  18.571  15.199 -0.00 +0.02    -0.303    17.234
ATOM     25  H   UNL d   1       4.080  19.153  14.529 +0.00 -0.01    +0.222    17.234
ATOM     26  O   UNL d   1       2.986  16.270  15.858 -0.06 +0.05    -0.303    17.234
ATOM     27  H   UNL d   1       2.190  15.826  15.499 -0.02 -0.06    +0.222    17.234
ATOM     28  O   UNL d   1       5.288  14.645   9.373 -0.23 +0.05    -0.278    17.234
ATOM     29  P   UNL d   1       6.755  14.149   8.999 -0.18 -0.08    +0.473    17.234
ATOM     30  O   UNL d   1       7.100  12.776   9.447 -0.26 +0.04    -0.228    17.234
ATOM     31  O   UNL d   1       6.748  14.419   7.422 -0.19 +0.06    -0.303    17.234
ATOM     32  H   UNL d   1       6.546  13.573   6.960 -0.39 -0.10    +0.222    17.234
ATOM     33  O   UNL d   1       7.660  15.336   9.555 -0.03 +0.02    -0.303    17.234
ATOM     34  H   UNL d   1       7.790  16.004   8.837 +0.03 -0.01    +0.222    17.234
ATOM     35  O   UNL d   1       1.738  14.536  12.349 -0.18 +0.03    -0.278    17.234
ATOM     36  P   UNL d   1       0.959  14.373  13.731 -0.18 -0.12    +0.473    17.234
ATOM     37  O   UNL d   1      -0.116  13.332  13.746 -0.90 +0.08    -0.228    17.234
ATOM     38  O   UNL d   1       2.152  14.096  14.748 -0.16 +0.10    -0.303    17.234
ATOM     39  H   UNL d   1       2.951  14.579  14.445 +0.08 -0.04    +0.222    17.234
ATOM     40  O   UNL d   1       0.521  15.867  14.053 -0.10 +0.06    -0.303    17.234
ATOM     41  H   UNL d   1       1.244  16.374  14.484 +0.05 -0.04    +0.222    17.234
ATOM     42  O   UNL d   1       4.138  13.109  11.518 -0.20 +0.07    -0.278    17.234
ATOM     43  P   UNL d   1       4.500  12.834  13.047 -0.19 -0.04    +0.473    17.234
ATOM     44  O   UNL d   1       4.992  13.986  13.854 -0.12 +0.01    -0.228    17.234
ATOM     45  O   UNL d   1       3.168  12.169  13.607 -0.34 +0.03    -0.303    17.234
ATOM     46  H   UNL d   1       2.374  12.664  13.322 +0.15 -0.03    +0.222    17.234
ATOM     47  O   UNL d   1       5.487  11.573  12.969 +0.02 -0.00    -0.303    17.234
ATOM     48  H   UNL d   1       6.198  11.759  12.322 +0.08 -0.01    +0.222    17.234
TER
ENDMDL
MODEL       97
USER    Run = 97
USER    Cluster Rank = 43
USER    Number of conformations in this cluster = 1
USER  
USER    RMSD from reference structure       = 21.301 A
USER  
USER    Estimated Free Energy of Binding    =   +2.81 kcal/mol  [=(1)+(2)+(3)-(4)]
USER    
USER    (1) Final Intermolecular Energy     =   -4.35 kcal/mol
USER        vdW + Hbond + desolv Energy     =   -3.83 kcal/mol
USER        Electrostatic Energy            =   -0.52 kcal/mol
USER    (2) Final Total Internal Energy     =  -12.35 kcal/mol
USER    (3) Torsional Free Energy           =   +7.16 kcal/mol
USER    (4) Unbound System's Energy  [=(2)] =  -12.35 kcal/mol
USER    
USER    
USER  
USER    DPF = D:/Protein_go_brrr/autodock/final/mut_D99N/IHP/dock.dpf
USER    NEWDPF move	IHP_ideal_opt.pdbqt
USER    NEWDPF about	0.035000 0.082000 -0.065000
USER    NEWDPF tran0	-12.355639 3.525254 -19.858571
USER    NEWDPF axisangle0	0.085386 -0.996169 -0.018901 -103.577007
USER    NEWDPF quaternion0	0.067090 -0.782722 -0.014851 -0.618566
USER    NEWDPF dihe0	108.48 145.88 101.10 128.34 130.46 70.66 -92.26 -21.73 34.89 31.16 131.07 105.39 130.29 -50.68 -112.97 54.63 159.85 -121.52 -6.08 -14.92 -8.54 159.71 -17.54 162.63 
USER  
USER                              x       y       z    vdW   Elec        q     RMS 
ATOM      1  C   UNL d   1     -13.329   2.444 -18.927 -0.07 +0.04    +0.194    21.301
ATOM      2  C   UNL d   1     -12.620   1.823 -20.132 -0.05 +0.04    +0.194    21.301
ATOM      3  C   UNL d   1     -12.703   2.726 -21.365 -0.01 +0.02    +0.194    21.301
ATOM      4  C   UNL d   1     -12.241   4.156 -21.097 -0.01 +0.01    +0.194    21.301
ATOM      5  C   UNL d   1     -12.836   4.774 -19.838 -0.04 -0.01    +0.194    21.301
ATOM      6  C   UNL d   1     -12.809   3.848 -18.620 -0.09 +0.01    +0.194    21.301
ATOM      7  O   UNL d   1     -13.059   1.630 -17.783 -0.36 -0.12    -0.278    21.301
ATOM      8  P   UNL d   1     -14.292   1.136 -16.896 -0.09 +0.28    +0.473    21.301
ATOM      9  O   UNL d   1     -13.926   0.331 -15.699 -0.17 -0.17    -0.228    21.301
ATOM     10  O   UNL d   1     -15.072   2.480 -16.534 -0.33 -0.28    -0.303    21.301
ATOM     11  H   UNL d   1     -14.442   3.141 -16.193 +0.06 +0.16    +0.222    21.301
ATOM     12  O   UNL d   1     -15.287   0.440 -17.921 -0.02 -0.11    -0.303    21.301
ATOM     13  H   UNL d   1     -15.226  -0.542 -17.912 +0.03 +0.06    +0.222    21.301
ATOM     14  O   UNL d   1     -11.239   1.621 -19.808 -0.18 -0.12    -0.278    21.301
ATOM     15  P   UNL d   1     -10.722   0.105 -19.791 -0.08 +0.23    +0.473    21.301
ATOM     16  O   UNL d   1     -11.700  -0.943 -20.223 -0.03 -0.06    -0.228    21.301
ATOM     17  O   UNL d   1      -9.409   0.133 -20.692 -0.07 -0.19    -0.303    21.301
ATOM     18  H   UNL d   1      -9.186   1.045 -20.961 +0.03 +0.16    +0.222    21.301
ATOM     19  O   UNL d   1     -10.108  -0.089 -18.337 -0.26 -0.23    -0.303    21.301
ATOM     20  H   UNL d   1     -10.799  -0.073 -17.648 +0.06 +0.16    +0.222    21.301
ATOM     21  O   UNL d   1     -13.686   4.417 -17.651 -0.10 +0.02    -0.278    21.301
ATOM     22  P   UNL d   1     -13.087   5.039 -16.309 -0.26 -0.19    +0.473    21.301
ATOM     23  O   UNL d   1     -12.775   4.115 -15.181 -0.40 -0.01    -0.228    21.301
ATOM     24  O   UNL d   1     -11.842   5.863 -16.861 -0.29 +0.28    -0.303    21.301
ATOM     25  H   UNL d   1     -12.185   6.588 -17.443 -0.16 -0.31    +0.222    21.301
ATOM     26  O   UNL d   1     -14.141   6.205 -15.992 -0.18 +0.27    -0.303    21.301
ATOM     27  H   UNL d   1     -13.750   7.068 -16.239 -0.46 -0.54    +0.222    21.301
ATOM     28  O   UNL d   1     -11.798   2.212 -22.334 -0.00 -0.04    -0.278    21.301
ATOM     29  P   UNL d   1     -10.285   2.709 -22.364 +0.01 +0.12    +0.473    21.301
ATOM     30  O   UNL d   1      -9.727   3.142 -21.057 -0.06 -0.10    -0.228    21.301
ATOM     31  O   UNL d   1      -9.591   1.450 -23.068 +0.00 -0.08    -0.303    21.301
ATOM     32  H   UNL d   1      -9.991   0.627 -22.703 +0.01 +0.06    +0.222    21.301
ATOM     33  O   UNL d   1     -10.312   3.793 -23.530 +0.00 -0.04    -0.303    21.301
ATOM     34  H   UNL d   1     -11.167   4.287 -23.489 +0.01 +0.02    +0.222    21.301
ATOM     35  O   UNL d   1     -12.012   5.897 -19.531 -0.07 +0.07    -0.278    21.301
ATOM     36  P   UNL d   1     -12.595   7.377 -19.642 -0.05 -0.31    +0.473    21.301
ATOM     37  O   UNL d   1     -11.580   8.455 -19.859 -0.13 +0.16    -0.228    21.301
ATOM     38  O   UNL d   1     -13.650   7.225 -20.825 -0.01 +0.09    -0.303    21.301
ATOM     39  H   UNL d   1     -13.305   6.583 -21.482 +0.02 -0.04    +0.222    21.301
ATOM     40  O   UNL d   1     -13.496   7.487 -18.337 +0.03 +0.43    -0.303    21.301
ATOM     41  H   UNL d   1     -13.608   6.614 -17.898 -0.08 -0.24    +0.222    21.301
ATOM     42  O   UNL d   1     -12.681   4.949 -22.204 +0.00 +0.00    -0.278    21.301
ATOM     43  P   UNL d   1     -14.212   4.877 -22.644 +0.01 -0.01    +0.473    21.301
ATOM     44  O   UNL d   1     -14.656   3.669 -23.395 +0.00 -0.00    -0.228    21.301
ATOM     45  O   UNL d   1     -14.981   5.108 -21.270 +0.00 +0.02    -0.303    21.301
ATOM     46  H   UNL d   1     -14.731   5.959 -20.858 +0.01 -0.03    +0.222    21.301
ATOM     47  O   UNL d   1     -14.446   6.278 -23.387 +0.00 +0.01    -0.303    21.301
ATOM     48  H   UNL d   1     -14.515   6.990 -22.718 +0.00 -0.02    +0.222    21.301
TER
ENDMDL
MODEL       37
USER    Run = 37
USER    Cluster Rank = 44
USER    Number of conformations in this cluster = 1
USER  
USER    RMSD from reference structure       = 20.655 A
USER  
USER    Estimated Free Energy of Binding    =   +2.82 kcal/mol  [=(1)+(2)+(3)-(4)]
USER    
USER    (1) Final Intermolecular Energy     =   -4.34 kcal/mol
USER        vdW + Hbond + desolv Energy     =   -3.82 kcal/mol
USER        Electrostatic Energy            =   -0.52 kcal/mol
USER    (2) Final Total Internal Energy     =  -14.22 kcal/mol
USER    (3) Torsional Free Energy           =   +7.16 kcal/mol
USER    (4) Unbound System's Energy  [=(2)] =  -14.22 kcal/mol
USER    
USER    
USER  
USER    DPF = D:/Protein_go_brrr/autodock/final/mut_D99N/IHP/dock.dpf
USER    NEWDPF move	IHP_ideal_opt.pdbqt
USER    NEWDPF about	0.035000 0.082000 -0.065000
USER    NEWDPF tran0	20.689225 -12.738559 7.264381
USER    NEWDPF axisangle0	-0.998959 -0.022884 -0.039456 157.569928
USER    NEWDPF quaternion0	-0.979883 -0.022447 -0.038702 0.194492
USER    NEWDPF dihe0	88.61 143.56 103.66 92.69 118.42 83.96 11.07 -167.40 92.02 -17.34 -167.62 -83.53 -74.73 97.17 -179.89 -92.99 44.30 -38.49 -145.30 -6.87 16.51 -11.66 -170.57 153.30 
USER  
USER                              x       y       z    vdW   Elec        q     RMS 
ATOM      1  C   UNL d   1      21.978 -12.145   6.280 -0.09 +0.11    +0.194    20.655
ATOM      2  C   UNL d   1      20.681 -11.336   6.228 -0.12 +0.07    +0.194    20.655
ATOM      3  C   UNL d   1      19.451 -12.243   6.146 -0.07 +0.01    +0.194    20.655
ATOM      4  C   UNL d   1      19.420 -13.315   7.232 -0.01 +0.00    +0.194    20.655
ATOM      5  C   UNL d   1      20.733 -14.070   7.397 -0.00 +0.02    +0.194    20.655
ATOM      6  C   UNL d   1      21.968 -13.167   7.417 -0.02 +0.05    +0.194    20.655
ATOM      7  O   UNL d   1      23.058 -11.241   6.529 -0.54 -0.40    -0.278    20.655
ATOM      8  P   UNL d   1      23.497 -10.982   8.042 -0.05 +0.38    +0.473    20.655
ATOM      9  O   UNL d   1      22.448 -11.261   9.061 -0.02 -0.07    -0.228    20.655
ATOM     10  O   UNL d   1      24.804 -11.879   8.224 -0.05 -0.20    -0.303    20.655
ATOM     11  H   UNL d   1      24.557 -12.823   8.208 +0.01 +0.10    +0.222    20.655
ATOM     12  O   UNL d   1      24.100  -9.512   8.052 -0.07 -0.33    -0.303    20.655
ATOM     13  H   UNL d   1      23.458  -8.834   8.363 +0.01 +0.16    +0.222    20.655
ATOM     14  O   UNL d   1      20.581 -10.538   7.414 -0.05 -0.09    -0.278    20.655
ATOM     15  P   UNL d   1      20.387  -8.962   7.202 -0.09 +0.16    +0.473    20.655
ATOM     16  O   UNL d   1      19.675  -8.221   8.289 -0.04 -0.03    -0.228    20.655
ATOM     17  O   UNL d   1      21.864  -8.421   6.949 -0.08 -0.22    -0.303    20.655
ATOM     18  H   UNL d   1      22.498  -9.158   6.858 +0.02 +0.26    +0.222    20.655
ATOM     19  O   UNL d   1      19.747  -8.833   5.751 -0.66 -0.14    -0.303    20.655
ATOM     20  H   UNL d   1      19.167  -9.589   5.545 +0.06 +0.07    +0.222    20.655
ATOM     21  O   UNL d   1      23.100 -14.013   7.229 -0.01 -0.08    -0.278    20.655
ATOM     22  P   UNL d   1      23.769 -14.732   8.487 +0.01 +0.08    +0.473    20.655
ATOM     23  O   UNL d   1      25.234 -15.013   8.441 +0.00 -0.04    -0.228    20.655
ATOM     24  O   UNL d   1      23.307 -13.790   9.683 +0.00 -0.05    -0.303    20.655
ATOM     25  H   UNL d   1      22.323 -13.686   9.631 +0.00 +0.03    +0.222    20.655
ATOM     26  O   UNL d   1      22.815 -16.005   8.680 +0.00 -0.03    -0.303    20.655
ATOM     27  H   UNL d   1      22.084 -15.770   9.288 +0.00 +0.01    +0.222    20.655
ATOM     28  O   UNL d   1      18.306 -11.434   6.381 -0.06 +0.02    -0.278    20.655
ATOM     29  P   UNL d   1      17.436 -10.896   5.160 -0.24 -0.13    +0.473    20.655
ATOM     30  O   UNL d   1      17.356  -9.418   5.032 -0.24 +0.04    -0.228    20.655
ATOM     31  O   UNL d   1      18.123 -11.694   3.955 -0.26 +0.08    -0.303    20.655
ATOM     32  H   UNL d   1      17.991 -12.659   4.103 +0.02 -0.11    +0.222    20.655
ATOM     33  O   UNL d   1      16.062 -11.676   5.361 -0.20 +0.23    -0.303    20.655
ATOM     34  H   UNL d   1      15.977 -12.364   4.656 -0.50 -0.40    +0.222    20.655
ATOM     35  O   UNL d   1      20.657 -14.706   8.671 +0.00 -0.02    -0.278    20.655
ATOM     36  P   UNL d   1      20.016 -13.941   9.915 +0.00 +0.02    +0.473    20.655
ATOM     37  O   UNL d   1      18.538 -14.102  10.080 +0.00 +0.00    -0.228    20.655
ATOM     38  O   UNL d   1      20.876 -14.512  11.127 +0.00 -0.01    -0.303    20.655
ATOM     39  H   UNL d   1      21.728 -14.856  10.783 +0.00 +0.01    +0.222    20.655
ATOM     40  O   UNL d   1      20.563 -12.460   9.722 +0.00 -0.03    -0.303    20.655
ATOM     41  H   UNL d   1      21.545 -12.432   9.721 +0.01 +0.03    +0.222    20.655
ATOM     42  O   UNL d   1      18.430 -14.272   6.842 -0.01 +0.03    -0.278    20.655
ATOM     43  P   UNL d   1      18.356 -14.726   5.315 -0.02 -0.10    +0.473    20.655
ATOM     44  O   UNL d   1      19.434 -14.250   4.403 -0.05 +0.02    -0.228    20.655
ATOM     45  O   UNL d   1      18.251 -16.310   5.426 -0.00 +0.04    -0.303    20.655
ATOM     46  H   UNL d   1      17.421 -16.643   5.029 +0.02 -0.03    +0.222    20.655
ATOM     47  O   UNL d   1      16.863 -14.330   4.887 -0.05 +0.26    -0.303    20.655
ATOM     48  H   UNL d   1      16.873 -13.449   4.458 -0.41 -0.30    +0.222    20.655
TER
ENDMDL
MODEL       46
USER    Run = 46
USER    Cluster Rank = 45
USER    Number of conformations in this cluster = 1
USER  
USER    RMSD from reference structure       = 16.763 A
USER  
USER    Estimated Free Energy of Binding    =   +2.88 kcal/mol  [=(1)+(2)+(3)-(4)]
USER    
USER    (1) Final Intermolecular Energy     =   -4.28 kcal/mol
USER        vdW + Hbond + desolv Energy     =   -3.85 kcal/mol
USER        Electrostatic Energy            =   -0.42 kcal/mol
USER    (2) Final Total Internal Energy     =  -14.28 kcal/mol
USER    (3) Torsional Free Energy           =   +7.16 kcal/mol
USER    (4) Unbound System's Energy  [=(2)] =  -14.28 kcal/mol
USER    
USER    
USER  
USER    DPF = D:/Protein_go_brrr/autodock/final/mut_D99N/IHP/dock.dpf
USER    NEWDPF move	IHP_ideal_opt.pdbqt
USER    NEWDPF about	0.035000 0.082000 -0.065000
USER    NEWDPF tran0	16.777677 -10.512176 8.246054
USER    NEWDPF axisangle0	0.075761 -0.364708 0.928035 151.947658
USER    NEWDPF quaternion0	0.073502 -0.353834 0.900366 0.242365
USER    NEWDPF dihe0	-143.65 -36.84 139.89 103.17 125.04 73.91 -30.09 -178.28 16.61 81.19 106.73 -109.51 79.15 -145.56 180.00 148.81 -60.22 87.93 -32.70 -35.60 9.17 -42.98 172.39 5.39 
USER  
USER                              x       y       z    vdW   Elec        q     RMS 
ATOM      1  C   UNL d   1      15.584 -11.039   9.379 -0.02 -0.03    +0.194    16.763
ATOM      2  C   UNL d   1      16.251  -9.699   9.696 -0.02 -0.03    +0.194    16.763
ATOM      3  C   UNL d   1      17.762  -9.749   9.462 -0.01 -0.01    +0.194    16.763
ATOM      4  C   UNL d   1      18.139 -10.267   8.076 -0.04 -0.00    +0.194    16.763
ATOM      5  C   UNL d   1      17.410 -11.542   7.671 -0.03 -0.02    +0.194    16.763
ATOM      6  C   UNL d   1      15.908 -11.516   7.962 -0.05 -0.04    +0.194    16.763
ATOM      7  O   UNL d   1      14.168 -10.861   9.455 -0.03 +0.07    -0.278    16.763
ATOM      8  P   UNL d   1      13.259 -12.137   9.766 +0.00 -0.09    +0.473    16.763
ATOM      9  O   UNL d   1      12.256 -11.949  10.849 -0.01 +0.05    -0.228    16.763
ATOM     10  O   UNL d   1      12.601 -12.496   8.357 -0.03 +0.08    -0.303    16.763
ATOM     11  H   UNL d   1      13.304 -12.671   7.704 +0.06 -0.06    +0.222    16.763
ATOM     12  O   UNL d   1      14.283 -13.335   9.969 -0.00 +0.04    -0.303    16.763
ATOM     13  H   UNL d   1      14.586 -13.731   9.121 +0.01 -0.03    +0.222    16.763
ATOM     14  O   UNL d   1      15.691  -8.687   8.850 -0.09 +0.07    -0.278    16.763
ATOM     15  P   UNL d   1      14.500  -7.814   9.470 -0.10 -0.16    +0.473    16.763
ATOM     16  O   UNL d   1      13.111  -8.329   9.263 -0.17 +0.10    -0.228    16.763
ATOM     17  O   UNL d   1      14.884  -7.674  11.010 -0.02 +0.06    -0.303    16.763
ATOM     18  H   UNL d   1      15.831  -7.466  11.119 +0.04 -0.03    +0.222    16.763
ATOM     19  O   UNL d   1      14.771  -6.339   8.939 -0.17 +0.15    -0.303    16.763
ATOM     20  H   UNL d   1      15.018  -6.335   7.996 -0.49 -0.15    +0.222    16.763
ATOM     21  O   UNL d   1      15.445 -12.860   7.857 -0.02 +0.07    -0.278    16.763
ATOM     22  P   UNL d   1      14.858 -13.389   6.471 -0.03 -0.26    +0.473    16.763
ATOM     23  O   UNL d   1      13.807 -14.447   6.509 -0.07 +0.08    -0.228    16.763
ATOM     24  O   UNL d   1      14.415 -12.033   5.766 -0.19 +0.23    -0.303    16.763
ATOM     25  H   UNL d   1      15.215 -11.454   5.682 +0.06 -0.15    +0.222    16.763
ATOM     26  O   UNL d   1      16.197 -13.756   5.670 -0.04 +0.24    -0.303    16.763
ATOM     27  H   UNL d   1      16.408 -13.032   5.046 -0.41 -0.28    +0.222    16.763
ATOM     28  O   UNL d   1      18.247  -8.413   9.509 -0.01 +0.00    -0.278    16.763
ATOM     29  P   UNL d   1      18.227  -7.598  10.878 +0.01 -0.01    +0.473    16.763
ATOM     30  O   UNL d   1      19.542  -7.079  11.334 -0.00 -0.00    -0.228    16.763
ATOM     31  O   UNL d   1      17.096  -6.516  10.541 -0.01 +0.03    -0.303    16.763
ATOM     32  H   UNL d   1      16.538  -6.863   9.808 +0.05 -0.03    +0.222    16.763
ATOM     33  O   UNL d   1      17.472  -8.604  11.854 -0.00 +0.02    -0.303    16.763
ATOM     34  H   UNL d   1      16.645  -8.173  12.182 +0.01 -0.02    +0.222    16.763
ATOM     35  O   UNL d   1      17.562 -11.642   6.257 -0.08 +0.06    -0.278    16.763
ATOM     36  P   UNL d   1      17.069 -10.457   5.309 -0.14 -0.14    +0.473    16.763
ATOM     37  O   UNL d   1      16.143  -9.468   5.942 -0.28 +0.07    -0.228    16.763
ATOM     38  O   UNL d   1      18.450  -9.838   4.815 -0.61 -0.05    -0.303    16.763
ATOM     39  H   UNL d   1      19.003  -9.622   5.597 +0.07 +0.06    +0.222    16.763
ATOM     40  O   UNL d   1      16.525 -11.243   4.037 -0.19 +0.26    -0.303    16.763
ATOM     41  H   UNL d   1      16.043 -12.060   4.293 -0.47 -0.41    +0.222    16.763
ATOM     42  O   UNL d   1      19.537 -10.576   8.115 -0.02 -0.03    -0.278    16.763
ATOM     43  P   UNL d   1      20.563  -9.598   7.383 -0.07 +0.16    +0.473    16.763
ATOM     44  O   UNL d   1      21.788  -9.203   8.133 -0.07 -0.11    -0.228    16.763
ATOM     45  O   UNL d   1      20.854 -10.358   6.016 -0.13 -0.17    -0.303    16.763
ATOM     46  H   UNL d   1      20.065 -10.843   5.701 +0.06 +0.07    +0.222    16.763
ATOM     47  O   UNL d   1      19.632  -8.390   6.893 -0.15 -0.08    -0.303    16.763
ATOM     48  H   UNL d   1      19.326  -7.881   7.672 +0.05 +0.03    +0.222    16.763
TER
ENDMDL
MODEL       29
USER    Run = 29
USER    Cluster Rank = 46
USER    Number of conformations in this cluster = 1
USER  
USER    RMSD from reference structure       = 10.489 A
USER  
USER    Estimated Free Energy of Binding    =   +2.89 kcal/mol  [=(1)+(2)+(3)-(4)]
USER    
USER    (1) Final Intermolecular Energy     =   -4.27 kcal/mol
USER        vdW + Hbond + desolv Energy     =   -3.68 kcal/mol
USER        Electrostatic Energy            =   -0.59 kcal/mol
USER    (2) Final Total Internal Energy     =  -14.47 kcal/mol
USER    (3) Torsional Free Energy           =   +7.16 kcal/mol
USER    (4) Unbound System's Energy  [=(2)] =  -14.47 kcal/mol
USER    
USER    
USER  
USER    DPF = D:/Protein_go_brrr/autodock/final/mut_D99N/IHP/dock.dpf
USER    NEWDPF move	IHP_ideal_opt.pdbqt
USER    NEWDPF about	0.035000 0.082000 -0.065000
USER    NEWDPF tran0	-10.842487 -7.789684 -1.769390
USER    NEWDPF axisangle0	-0.513349 -0.837001 0.189479 105.358348
USER    NEWDPF quaternion0	-0.408243 -0.665627 0.150684 0.606278
USER    NEWDPF dihe0	104.68 10.53 103.48 85.23 179.96 116.88 -21.47 -84.01 157.98 13.43 135.88 116.67 -28.66 114.08 66.49 -67.00 -180.00 -158.40 7.99 -14.96 -27.62 2.78 176.97 9.24 
USER  
USER                              x       y       z    vdW   Elec        q     RMS 
ATOM      1  C   UNL d   1     -10.860  -8.440  -3.370 +0.00 -0.17    +0.194    10.489
ATOM      2  C   UNL d   1     -11.782  -9.133  -2.365 -0.05 -0.10    +0.194    10.489
ATOM      3  C   UNL d   1     -11.095  -9.337  -1.013 -0.06 -0.11    +0.194    10.489
ATOM      4  C   UNL d   1     -10.484  -8.057  -0.449 -0.12 -0.08    +0.194    10.489
ATOM      5  C   UNL d   1      -9.649  -7.272  -1.453 -0.14 -0.14    +0.194    10.489
ATOM      6  C   UNL d   1     -10.311  -7.121  -2.824 -0.15 -0.13    +0.194    10.489
ATOM      7  O   UNL d   1     -11.625  -8.132  -4.538 -0.07 +0.11    -0.278    10.489
ATOM      8  P   UNL d   1     -11.251  -8.866  -5.906 -0.08 -0.18    +0.473    10.489
ATOM      9  O   UNL d   1     -10.526 -10.157  -5.751 -0.15 +0.12    -0.228    10.489
ATOM     10  O   UNL d   1     -12.649  -9.018  -6.659 -0.02 +0.06    -0.303    10.489
ATOM     11  H   UNL d   1     -13.292  -9.454  -6.070 +0.03 -0.04    +0.222    10.489
ATOM     12  O   UNL d   1     -10.519  -7.761  -6.782 -0.18 +0.11    -0.303    10.489
ATOM     13  H   UNL d   1     -10.883  -6.857  -6.644 -0.37 -0.11    +0.222    10.489
ATOM     14  O   UNL d   1     -12.948  -8.324  -2.166 -0.01 +0.05    -0.278    10.489
ATOM     15  P   UNL d   1     -14.347  -8.964  -2.611 +0.01 -0.04    +0.473    10.489
ATOM     16  O   UNL d   1     -15.584  -8.234  -2.190 -0.00 +0.00    -0.228    10.489
ATOM     17  O   UNL d   1     -14.223  -9.105  -4.193 +0.00 +0.04    -0.303    10.489
ATOM     18  H   UNL d   1     -13.318  -8.897  -4.495 +0.02 -0.04    +0.222    10.489
ATOM     19  O   UNL d   1     -14.255 -10.482  -2.146 +0.00 +0.04    -0.303    10.489
ATOM     20  H   UNL d   1     -13.638 -10.593  -1.399 +0.01 -0.03    +0.222    10.489
ATOM     21  O   UNL d   1      -9.295  -6.686  -3.726 -0.27 +0.18    -0.278    10.489
ATOM     22  P   UNL d   1      -9.558  -5.424  -4.665 -0.30 -0.11    +0.473    10.489
ATOM     23  O   UNL d   1      -9.053  -4.094  -4.217 -0.26 +0.01    -0.228    10.489
ATOM     24  O   UNL d   1      -8.972  -5.926  -6.057 -0.31 +0.09    -0.303    10.489
ATOM     25  H   UNL d   1      -9.724  -6.008  -6.697 -0.16 -0.14    +0.222    10.489
ATOM     26  O   UNL d   1     -11.139  -5.527  -4.915 -0.18 +0.06    -0.303    10.489
ATOM     27  H   UNL d   1     -11.346  -6.400  -5.308 +0.09 -0.06    +0.222    10.489
ATOM     28  O   UNL d   1     -12.094  -9.723  -0.078 -0.01 +0.06    -0.278    10.489
ATOM     29  P   UNL d   1     -12.081 -11.183   0.558 +0.01 -0.08    +0.473    10.489
ATOM     30  O   UNL d   1     -12.899 -12.198  -0.153 +0.00 +0.03    -0.228    10.489
ATOM     31  O   UNL d   1     -10.503 -11.442   0.629 -0.01 +0.10    -0.303    10.489
ATOM     32  H   UNL d   1     -10.049 -10.577   0.752 +0.04 -0.08    +0.222    10.489
ATOM     33  O   UNL d   1     -12.458 -10.889   2.076 +0.00 +0.01    -0.303    10.489
ATOM     34  H   UNL d   1     -12.203  -9.960   2.297 +0.02 -0.00    +0.222    10.489
ATOM     35  O   UNL d   1      -9.514  -5.963  -0.905 -0.14 +0.04    -0.278    10.489
ATOM     36  P   UNL d   1     -10.805  -5.146  -0.446 -0.13 +0.07    +0.473    10.489
ATOM     37  O   UNL d   1     -10.839  -3.709  -0.858 -0.22 -0.06    -0.228    10.489
ATOM     38  O   UNL d   1     -11.983  -6.029  -1.053 -0.04 -0.01    -0.303    10.489
ATOM     39  H   UNL d   1     -12.231  -6.723  -0.404 +0.05 +0.01    +0.222    10.489
ATOM     40  O   UNL d   1     -10.863  -5.451   1.114 -0.13 -0.13    -0.303    10.489
ATOM     41  H   UNL d   1     -10.462  -6.322   1.330 +0.07 +0.04    +0.222    10.489
ATOM     42  O   UNL d   1      -9.608  -8.448   0.613 -0.14 +0.10    -0.278    10.489
ATOM     43  P   UNL d   1     -10.101  -8.283   2.121 -0.08 -0.00    +0.473    10.489
ATOM     44  O   UNL d   1      -9.403  -7.274   2.966 -0.25 -0.03    -0.228    10.489
ATOM     45  O   UNL d   1     -11.662  -8.022   1.951 -0.04 -0.03    -0.303    10.489
ATOM     46  H   UNL d   1     -12.110  -8.789   1.542 +0.03 +0.00    +0.222    10.489
ATOM     47  O   UNL d   1     -10.081  -9.786   2.679 -0.02 +0.01    -0.303    10.489
ATOM     48  H   UNL d   1     -10.739 -10.321   2.188 +0.03 -0.02    +0.222    10.489
TER
ENDMDL
MODEL       47
USER    Run = 47
USER    Cluster Rank = 47
USER    Number of conformations in this cluster = 1
USER  
USER    RMSD from reference structure       = 16.613 A
USER  
USER    Estimated Free Energy of Binding    =   +2.90 kcal/mol  [=(1)+(2)+(3)-(4)]
USER    
USER    (1) Final Intermolecular Energy     =   -4.26 kcal/mol
USER        vdW + Hbond + desolv Energy     =   -4.01 kcal/mol
USER        Electrostatic Energy            =   -0.25 kcal/mol
USER    (2) Final Total Internal Energy     =  -12.95 kcal/mol
USER    (3) Torsional Free Energy           =   +7.16 kcal/mol
USER    (4) Unbound System's Energy  [=(2)] =  -12.95 kcal/mol
USER    
USER    
USER  
USER    DPF = D:/Protein_go_brrr/autodock/final/mut_D99N/IHP/dock.dpf
USER    NEWDPF move	IHP_ideal_opt.pdbqt
USER    NEWDPF about	0.035000 0.082000 -0.065000
USER    NEWDPF tran0	-16.845402 11.006343 5.830218
USER    NEWDPF axisangle0	-0.450089 0.844126 -0.291325 136.608081
USER    NEWDPF quaternion0	-0.418204 0.784327 -0.270687 0.369681
USER    NEWDPF dihe0	-179.43 -64.11 18.99 27.24 33.72 -133.21 -111.60 116.31 166.94 -28.07 -3.06 -83.56 81.76 -80.91 -55.90 -35.15 160.76 -72.69 17.09 12.96 160.16 2.71 19.30 168.96 
USER  
USER                              x       y       z    vdW   Elec        q     RMS 
ATOM      1  C   UNL d   1     -16.837   9.407   6.484 -0.01 -0.01    +0.194    16.613
ATOM      2  C   UNL d   1     -15.548   9.842   5.785 -0.05 -0.03    +0.194    16.613
ATOM      3  C   UNL d   1     -15.835  10.583   4.477 -0.07 -0.03    +0.194    16.613
ATOM      4  C   UNL d   1     -16.819  11.739   4.644 -0.02 -0.03    +0.194    16.613
ATOM      5  C   UNL d   1     -18.069  11.379   5.437 -0.00 -0.02    +0.194    16.613
ATOM      6  C   UNL d   1     -17.786  10.584   6.713 -0.00 -0.02    +0.194    16.613
ATOM      7  O   UNL d   1     -16.492   8.882   7.768 -0.02 +0.01    -0.278    16.613
ATOM      8  P   UNL d   1     -16.547   7.299   7.980 -0.01 +0.03    +0.473    16.613
ATOM      9  O   UNL d   1     -15.362   6.713   8.663 -0.11 -0.04    -0.228    16.613
ATOM     10  O   UNL d   1     -17.910   7.062   8.774 -0.01 -0.02    -0.303    16.613
ATOM     11  H   UNL d   1     -18.514   7.813   8.619 +0.01 +0.01    +0.222    16.613
ATOM     12  O   UNL d   1     -16.888   6.702   6.548 -0.01 -0.02    -0.303    16.613
ATOM     13  H   UNL d   1     -17.799   6.333   6.491 +0.01 +0.01    +0.222    16.613
ATOM     14  O   UNL d   1     -14.817  10.716   6.654 -0.06 +0.08    -0.278    16.613
ATOM     15  P   UNL d   1     -13.220  10.604   6.604 -0.24 -0.17    +0.473    16.613
ATOM     16  O   UNL d   1     -12.652   9.293   6.159 -0.24 +0.06    -0.228    16.613
ATOM     17  O   UNL d   1     -12.775  11.818   5.673 -0.23 +0.15    -0.303    16.613
ATOM     18  H   UNL d   1     -12.936  11.616   4.732 +0.11 -0.07    +0.222    16.613
ATOM     19  O   UNL d   1     -12.742  11.107   8.036 -0.49 +0.17    -0.303    16.613
ATOM     20  H   UNL d   1     -13.335  11.794   8.393 -0.04 -0.27    +0.222    16.613
ATOM     21  O   UNL d   1     -19.031  10.040   7.144 +0.00 +0.01    -0.278    16.613
ATOM     22  P   UNL d   1     -19.862   9.092   6.166 -0.00 +0.01    +0.473    16.613
ATOM     23  O   UNL d   1     -19.663   9.248   4.696 -0.01 -0.00    -0.228    16.613
ATOM     24  O   UNL d   1     -19.513   7.648   6.737 -0.00 -0.01    -0.303    16.613
ATOM     25  H   UNL d   1     -18.589   7.673   7.095 +0.01 +0.01    +0.222    16.613
ATOM     26  O   UNL d   1     -21.359   9.306   6.698 -0.00 -0.01    -0.303    16.613
ATOM     27  H   UNL d   1     -21.557  10.264   6.726 +0.00 +0.00    +0.222    16.613
ATOM     28  O   UNL d   1     -14.619  11.183   4.049 -0.08 +0.05    -0.278    16.613
ATOM     29  P   UNL d   1     -13.902  10.684   2.717 -0.20 -0.09    +0.473    16.613
ATOM     30  O   UNL d   1     -13.477   9.260   2.713 -0.28 +0.02    -0.228    16.613
ATOM     31  O   UNL d   1     -14.994  11.119   1.632 -0.28 +0.08    -0.303    16.613
ATOM     32  H   UNL d   1     -15.840  10.656   1.835 -0.25 -0.07    +0.222    16.613
ATOM     33  O   UNL d   1     -12.759  11.776   2.523 -0.24 +0.07    -0.303    16.613
ATOM     34  H   UNL d   1     -12.196  11.519   1.753 -0.41 -0.10    +0.222    16.613
ATOM     35  O   UNL d   1     -18.645  12.622   5.835 +0.00 +0.03    -0.278    16.613
ATOM     36  P   UNL d   1     -20.223  12.751   6.028 +0.00 -0.02    +0.473    16.613
ATOM     37  O   UNL d   1     -20.782  14.129   5.865 +0.00 +0.01    -0.228    16.613
ATOM     38  O   UNL d   1     -20.769  11.694   4.970 +0.00 +0.00    -0.303    16.613
ATOM     39  H   UNL d   1     -20.959  10.848   5.430 +0.00 +0.00    +0.222    16.613
ATOM     40  O   UNL d   1     -20.453  12.041   7.433 +0.00 +0.01    -0.303    16.613
ATOM     41  H   UNL d   1     -20.306  11.071   7.378 +0.00 -0.01    +0.222    16.613
ATOM     42  O   UNL d   1     -17.246  12.113   3.330 -0.03 +0.03    -0.278    16.613
ATOM     43  P   UNL d   1     -17.937  11.015   2.402 -0.06 -0.06    +0.473    16.613
ATOM     44  O   UNL d   1     -17.577   9.589   2.641 -0.15 +0.03    -0.228    16.613
ATOM     45  O   UNL d   1     -19.486  11.333   2.578 -0.02 +0.01    -0.303    16.613
ATOM     46  H   UNL d   1     -19.822  11.013   3.439 +0.02 -0.00    +0.222    16.613
ATOM     47  O   UNL d   1     -17.658  11.559   0.921 -0.14 +0.08    -0.303    16.613
ATOM     48  H   UNL d   1     -16.855  11.126   0.563 -0.40 -0.14    +0.222    16.613
TER
ENDMDL
MODEL       52
USER    Run = 52
USER    Cluster Rank = 48
USER    Number of conformations in this cluster = 1
USER  
USER    RMSD from reference structure       = 13.747 A
USER  
USER    Estimated Free Energy of Binding    =   +2.92 kcal/mol  [=(1)+(2)+(3)-(4)]
USER    
USER    (1) Final Intermolecular Energy     =   -4.24 kcal/mol
USER        vdW + Hbond + desolv Energy     =   -4.31 kcal/mol
USER        Electrostatic Energy            =   +0.07 kcal/mol
USER    (2) Final Total Internal Energy     =  -16.35 kcal/mol
USER    (3) Torsional Free Energy           =   +7.16 kcal/mol
USER    (4) Unbound System's Energy  [=(2)] =  -16.35 kcal/mol
USER    
USER    
USER  
USER    DPF = D:/Protein_go_brrr/autodock/final/mut_D99N/IHP/dock.dpf
USER    NEWDPF move	IHP_ideal_opt.pdbqt
USER    NEWDPF about	0.035000 0.082000 -0.065000
USER    NEWDPF tran0	-14.327048 6.126169 7.692291
USER    NEWDPF axisangle0	0.042498 -0.151390 0.987560 88.716925
USER    NEWDPF quaternion0	0.029712 -0.105843 0.690448 0.714980
USER    NEWDPF dihe0	79.12 99.56 127.55 9.04 110.68 87.36 0.26 -53.59 -45.95 18.20 157.10 122.38 -74.01 36.29 -178.52 -73.05 173.36 -167.63 -141.00 -26.52 15.56 -10.35 -179.38 18.44 
USER  
USER                              x       y       z    vdW   Elec        q     RMS 
ATOM      1  C   UNL d   1     -15.016   4.759   8.493 -0.06 +0.06    +0.194    13.747
ATOM      2  C   UNL d   1     -15.906   6.002   8.423 -0.07 +0.03    +0.194    13.747
ATOM      3  C   UNL d   1     -15.120   7.279   8.727 -0.06 +0.03    +0.194    13.747
ATOM      4  C   UNL d   1     -13.857   7.425   7.882 -0.22 +0.00    +0.194    13.747
ATOM      5  C   UNL d   1     -12.997   6.169   7.831 -0.21 +0.01    +0.194    13.747
ATOM      6  C   UNL d   1     -13.790   4.884   7.588 -0.13 +0.03    +0.194    13.747
ATOM      7  O   UNL d   1     -15.775   3.640   8.031 -0.02 -0.06    -0.278    13.747
ATOM      8  P   UNL d   1     -15.615   3.191   6.506 +0.01 +0.09    +0.473    13.747
ATOM      9  O   UNL d   1     -15.115   4.249   5.587 -0.05 -0.03    -0.228    13.747
ATOM     10  O   UNL d   1     -14.659   1.916   6.577 -0.01 -0.09    -0.303    13.747
ATOM     11  H   UNL d   1     -13.734   2.207   6.688 +0.05 +0.07    +0.222    13.747
ATOM     12  O   UNL d   1     -17.011   2.539   6.119 -0.00 -0.06    -0.303    13.747
ATOM     13  H   UNL d   1     -17.776   3.133   6.292 +0.01 +0.03    +0.222    13.747
ATOM     14  O   UNL d   1     -16.456   6.108   7.104 -0.02 -0.02    -0.278    13.747
ATOM     15  P   UNL d   1     -17.999   5.713   6.938 +0.00 +0.04    +0.473    13.747
ATOM     16  O   UNL d   1     -18.994   6.822   7.075 -0.00 -0.01    -0.228    13.747
ATOM     17  O   UNL d   1     -18.065   4.997   5.517 -0.01 -0.03    -0.303    13.747
ATOM     18  H   UNL d   1     -17.233   4.525   5.322 +0.03 +0.03    +0.222    13.747
ATOM     19  O   UNL d   1     -18.202   4.483   7.926 -0.00 -0.04    -0.303    13.747
ATOM     20  H   UNL d   1     -17.527   3.793   7.786 +0.01 +0.03    +0.222    13.747
ATOM     21  O   UNL d   1     -12.923   3.798   7.906 -0.15 -0.06    -0.278    13.747
ATOM     22  P   UNL d   1     -11.939   3.217   6.792 -0.15 +0.08    +0.473    13.747
ATOM     23  O   UNL d   1     -11.602   1.765   6.837 -0.22 -0.07    -0.228    13.747
ATOM     24  O   UNL d   1     -12.648   3.697   5.450 -0.09 -0.05    -0.303    13.747
ATOM     25  H   UNL d   1     -12.921   4.642   5.567 +0.09 +0.02    +0.222    13.747
ATOM     26  O   UNL d   1     -10.700   4.230   6.892 -0.31 -0.01    -0.303    13.747
ATOM     27  H   UNL d   1     -10.871   5.005   6.319 +0.10 -0.01    +0.222    13.747
ATOM     28  O   UNL d   1     -15.943   8.383   8.370 -0.05 -0.00    -0.278    13.747
ATOM     29  P   UNL d   1     -16.748   9.181   9.489 -0.02 -0.02    +0.473    13.747
ATOM     30  O   UNL d   1     -18.179   8.812   9.635 -0.01 -0.00    -0.228    13.747
ATOM     31  O   UNL d   1     -15.799   8.925  10.752 -0.11 -0.03    -0.303    13.747
ATOM     32  H   UNL d   1     -14.878   9.173  10.508 +0.06 +0.01    +0.222    13.747
ATOM     33  O   UNL d   1     -16.430  10.695   9.113 -0.04 +0.07    -0.303    13.747
ATOM     34  H   UNL d   1     -15.917  10.715   8.268 +0.05 -0.07    +0.222    13.747
ATOM     35  O   UNL d   1     -12.125   6.343   6.716 -0.19 +0.05    -0.278    13.747
ATOM     36  P   UNL d   1     -12.709   6.795   5.301 -0.04 -0.06    +0.473    13.747
ATOM     37  O   UNL d   1     -12.070   6.159   4.107 -0.25 +0.01    -0.228    13.747
ATOM     38  O   UNL d   1     -14.258   6.466   5.468 -0.08 -0.00    -0.303    13.747
ATOM     39  H   UNL d   1     -14.509   5.768   4.825 +0.06 +0.01    +0.222    13.747
ATOM     40  O   UNL d   1     -12.641   8.381   5.397 -0.13 +0.08    -0.303    13.747
ATOM     41  H   UNL d   1     -12.640   8.689   6.331 -0.03 -0.07    +0.222    13.747
ATOM     42  O   UNL d   1     -13.068   8.452   8.490 -0.70 -0.00    -0.278    13.747
ATOM     43  P   UNL d   1     -13.235   9.956   7.984 -0.29 -0.11    +0.473    13.747
ATOM     44  O   UNL d   1     -12.021  10.645   7.464 -0.90 +0.07    -0.228    13.747
ATOM     45  O   UNL d   1     -14.419   9.838   6.927 -0.08 +0.06    -0.303    13.747
ATOM     46  H   UNL d   1     -15.294   9.873   7.364 +0.06 -0.04    +0.222    13.747
ATOM     47  O   UNL d   1     -13.967  10.677   9.214 -0.19 +0.14    -0.303    13.747
ATOM     48  H   UNL d   1     -14.817  10.225   9.394 +0.06 -0.06    +0.222    13.747
TER
ENDMDL
MODEL       68
USER    Run = 68
USER    Cluster Rank = 49
USER    Number of conformations in this cluster = 1
USER  
USER    RMSD from reference structure       = 15.487 A
USER  
USER    Estimated Free Energy of Binding    =   +2.93 kcal/mol  [=(1)+(2)+(3)-(4)]
USER    
USER    (1) Final Intermolecular Energy     =   -4.23 kcal/mol
USER        vdW + Hbond + desolv Energy     =   -3.98 kcal/mol
USER        Electrostatic Energy            =   -0.25 kcal/mol
USER    (2) Final Total Internal Energy     =  -13.00 kcal/mol
USER    (3) Torsional Free Energy           =   +7.16 kcal/mol
USER    (4) Unbound System's Energy  [=(2)] =  -13.00 kcal/mol
USER    
USER    
USER  
USER    DPF = D:/Protein_go_brrr/autodock/final/mut_D99N/IHP/dock.dpf
USER    NEWDPF move	IHP_ideal_opt.pdbqt
USER    NEWDPF about	0.035000 0.082000 -0.065000
USER    NEWDPF tran0	1.182799 -15.759055 -9.110282
USER    NEWDPF axisangle0	-0.774923 0.628477 -0.067163 84.283566
USER    NEWDPF quaternion0	-0.519948 0.421688 -0.045064 0.741487
USER    NEWDPF dihe0	117.68 142.15 -57.20 149.42 36.41 -154.04 -44.79 122.95 114.19 -41.46 87.10 -54.45 -25.94 -30.22 -46.46 -55.43 158.89 30.44 31.15 -45.87 166.56 15.35 24.23 -176.19 
USER  
USER                              x       y       z    vdW   Elec        q     RMS 
ATOM      1  C   UNL d   1       1.976 -17.269  -8.837 -0.08 +0.02    +0.194    15.487
ATOM      2  C   UNL d   1       1.797 -16.873 -10.304 -0.09 +0.04    +0.194    15.487
ATOM      3  C   UNL d   1       0.403 -16.301 -10.569 -0.09 +0.03    +0.194    15.487
ATOM      4  C   UNL d   1       0.025 -15.170  -9.615 -0.21 +0.01    +0.194    15.487
ATOM      5  C   UNL d   1       0.295 -15.479  -8.149 -0.18 +0.00    +0.194    15.487
ATOM      6  C   UNL d   1       1.666 -16.109  -7.891 -0.03 +0.01    +0.194    15.487
ATOM      7  O   UNL d   1       3.345 -17.628  -8.636 -0.06 -0.04    -0.278    15.487
ATOM      8  P   UNL d   1       3.764 -19.158  -8.820 -0.02 +0.03    +0.473    15.487
ATOM      9  O   UNL d   1       2.888 -19.947  -9.728 -0.01 -0.01    -0.228    15.487
ATOM     10  O   UNL d   1       5.279 -19.088  -9.314 -0.04 -0.01    -0.303    15.487
ATOM     11  H   UNL d   1       5.382 -18.356  -9.950 +0.06 +0.02    +0.222    15.487
ATOM     12  O   UNL d   1       3.921 -19.724  -7.344 -0.03 -0.01    -0.303    15.487
ATOM     13  H   UNL d   1       3.120 -20.196  -7.024 +0.01 +0.00    +0.222    15.487
ATOM     14  O   UNL d   1       2.771 -15.877 -10.641 -0.25 -0.10    -0.278    15.487
ATOM     15  P   UNL d   1       4.210 -16.410 -11.098 -0.16 +0.13    +0.473    15.487
ATOM     16  O   UNL d   1       4.262 -17.784 -11.687 -0.06 -0.03    -0.228    15.487
ATOM     17  O   UNL d   1       4.738 -15.288 -12.099 +0.00 -0.13    -0.303    15.487
ATOM     18  H   UNL d   1       5.364 -15.663 -12.748 +0.09 +0.07    +0.222    15.487
ATOM     19  O   UNL d   1       5.142 -16.171  -9.831 -0.46 -0.09    -0.303    15.487
ATOM     20  H   UNL d   1       5.142 -16.941  -9.233 +0.08 +0.04    +0.222    15.487
ATOM     21  O   UNL d   1       1.631 -16.644  -6.570 -0.05 -0.01    -0.278    15.487
ATOM     22  P   UNL d   1       0.630 -17.837  -6.225 -0.02 +0.00    +0.473    15.487
ATOM     23  O   UNL d   1      -0.490 -18.113  -7.170 -0.02 +0.00    -0.228    15.487
ATOM     24  O   UNL d   1       1.634 -19.052  -6.007 -0.02 -0.00    -0.303    15.487
ATOM     25  H   UNL d   1       2.431 -18.899  -6.576 +0.02 +0.01    +0.222    15.487
ATOM     26  O   UNL d   1       0.208 -17.483  -4.719 -0.02 +0.01    -0.303    15.487
ATOM     27  H   UNL d   1       0.209 -16.511  -4.605 +0.06 -0.01    +0.222    15.487
ATOM     28  O   UNL d   1       0.421 -15.712 -11.864 -0.10 -0.13    -0.278    15.487
ATOM     29  P   UNL d   1      -0.656 -16.138 -12.956 -0.04 +0.16    +0.473    15.487
ATOM     30  O   UNL d   1      -0.363 -17.396 -13.690 -0.02 -0.05    -0.228    15.487
ATOM     31  O   UNL d   1      -1.985 -16.110 -12.064 -0.07 -0.01    -0.303    15.487
ATOM     32  H   UNL d   1      -1.760 -15.744 -11.178 +0.02 -0.01    +0.222    15.487
ATOM     33  O   UNL d   1      -0.791 -14.812 -13.827 -0.50 -0.27    -0.303    15.487
ATOM     34  H   UNL d   1      -1.472 -14.956 -14.529 +0.05 +0.06    +0.222    15.487
ATOM     35  O   UNL d   1       0.278 -14.221  -7.478 -0.25 +0.02    -0.278    15.487
ATOM     36  P   UNL d   1      -0.073 -14.142  -5.924 -0.18 -0.03    +0.473    15.487
ATOM     37  O   UNL d   1      -0.589 -12.822  -5.446 -0.39 +0.04    -0.228    15.487
ATOM     38  O   UNL d   1      -1.103 -15.345  -5.761 -0.10 +0.02    -0.303    15.487
ATOM     39  H   UNL d   1      -0.763 -16.127  -6.246 +0.06 -0.01    +0.222    15.487
ATOM     40  O   UNL d   1       1.259 -14.684  -5.246 -0.14 +0.01    -0.303    15.487
ATOM     41  H   UNL d   1       1.281 -15.666  -5.222 +0.08 -0.00    +0.222    15.487
ATOM     42  O   UNL d   1      -1.386 -14.968  -9.750 -0.11 +0.02    -0.278    15.487
ATOM     43  P   UNL d   1      -2.382 -16.053  -9.138 -0.01 -0.03    +0.473    15.487
ATOM     44  O   UNL d   1      -2.579 -16.049  -7.661 -0.08 +0.01    -0.228    15.487
ATOM     45  O   UNL d   1      -3.716 -15.814  -9.973 -0.14 +0.06    -0.303    15.487
ATOM     46  H   UNL d   1      -3.549 -15.261 -10.763 -0.51 -0.09    +0.222    15.487
ATOM     47  O   UNL d   1      -1.851 -17.431  -9.761 -0.03 +0.00    -0.303    15.487
ATOM     48  H   UNL d   1      -1.656 -18.059  -9.035 +0.02 -0.00    +0.222    15.487
TER
ENDMDL
MODEL        9
USER    Run = 9
USER    Cluster Rank = 50
USER    Number of conformations in this cluster = 1
USER  
USER    RMSD from reference structure       = 15.349 A
USER  
USER    Estimated Free Energy of Binding    =   +2.94 kcal/mol  [=(1)+(2)+(3)-(4)]
USER    
USER    (1) Final Intermolecular Energy     =   -4.22 kcal/mol
USER        vdW + Hbond + desolv Energy     =   -3.77 kcal/mol
USER        Electrostatic Energy            =   -0.45 kcal/mol
USER    (2) Final Total Internal Energy     =  -13.89 kcal/mol
USER    (3) Torsional Free Energy           =   +7.16 kcal/mol
USER    (4) Unbound System's Energy  [=(2)] =  -13.89 kcal/mol
USER    
USER    
USER  
USER    DPF = D:/Protein_go_brrr/autodock/final/mut_D99N/IHP/dock.dpf
USER    NEWDPF move	IHP_ideal_opt.pdbqt
USER    NEWDPF about	0.035000 0.082000 -0.065000
USER    NEWDPF tran0	0.212083 -9.926229 15.466939
USER    NEWDPF axisangle0	0.927115 0.311025 0.209098 160.986867
USER    NEWDPF quaternion0	0.914382 0.306754 0.206226 0.165161
USER    NEWDPF dihe0	113.73 100.04 147.97 -3.41 162.79 131.16 -79.34 -3.33 149.12 -21.62 65.18 -12.93 -29.26 80.49 52.73 -172.74 -175.66 -84.03 28.29 -36.10 177.75 -34.52 12.72 -167.69 
USER  
USER                              x       y       z    vdW   Elec        q     RMS 
ATOM      1  C   UNL d   1       0.782  -8.297  15.542 -0.03 +0.00    +0.194    15.349
ATOM      2  C   UNL d   1      -0.732  -8.462  15.403 -0.03 +0.01    +0.194    15.349
ATOM      3  C   UNL d   1      -1.094  -9.542  14.382 -0.07 -0.03    +0.194    15.349
ATOM      4  C   UNL d   1      -0.390 -10.872  14.639 -0.03 -0.03    +0.194    15.349
ATOM      5  C   UNL d   1       1.106 -10.743  14.897 -0.03 -0.02    +0.194    15.349
ATOM      6  C   UNL d   1       1.472  -9.622  15.871 -0.01 -0.01    +0.194    15.349
ATOM      7  O   UNL d   1       1.036  -7.403  16.628 -0.02 -0.05    -0.278    15.349
ATOM      8  P   UNL d   1       1.237  -5.852  16.303 -0.05 +0.30    +0.473    15.349
ATOM      9  O   UNL d   1       0.644  -5.395  15.016 -0.20 -0.14    -0.228    15.349
ATOM     10  O   UNL d   1       0.626  -5.108  17.575 -0.56 -0.47    -0.303    15.349
ATOM     11  H   UNL d   1      -0.221  -5.524  17.821 +0.02 +0.22    +0.222    15.349
ATOM     12  O   UNL d   1       2.794  -5.590  16.481 -0.05 -0.11    -0.303    15.349
ATOM     13  H   UNL d   1       3.351  -6.192  15.936 +0.04 +0.01    +0.222    15.349
ATOM     14  O   UNL d   1      -1.280  -8.833  16.674 -0.00 -0.02    -0.278    15.349
ATOM     15  P   UNL d   1      -1.858  -7.646  17.580 +0.00 +0.09    +0.473    15.349
ATOM     16  O   UNL d   1      -3.173  -7.891  18.250 -0.01 -0.03    -0.228    15.349
ATOM     17  O   UNL d   1      -0.685  -7.341  18.614 -0.00 -0.07    -0.303    15.349
ATOM     18  H   UNL d   1       0.162  -7.192  18.152 +0.01 +0.06    +0.222    15.349
ATOM     19  O   UNL d   1      -1.795  -6.364  16.640 -0.06 -0.12    -0.303    15.349
ATOM     20  H   UNL d   1      -0.878  -6.143  16.392 +0.05 +0.12    +0.222    15.349
ATOM     21  O   UNL d   1       2.875  -9.406  15.743 -0.02 +0.05    -0.278    15.349
ATOM     22  P   UNL d   1       3.444  -8.630  14.471 -0.09 -0.19    +0.473    15.349
ATOM     23  O   UNL d   1       3.428  -7.138  14.490 -0.14 +0.07    -0.228    15.349
ATOM     24  O   UNL d   1       4.888  -9.280  14.311 -0.13 +0.26    -0.303    15.349
ATOM     25  H   UNL d   1       4.829  -9.999  13.632 +0.03 -0.23    +0.222    15.349
ATOM     26  O   UNL d   1       2.633  -9.326  13.275 -0.23 +0.11    -0.303    15.349
ATOM     27  H   UNL d   1       2.609 -10.293  13.424 +0.06 -0.07    +0.222    15.349
ATOM     28  O   UNL d   1      -2.482  -9.817  14.522 -0.05 +0.04    -0.278    15.349
ATOM     29  P   UNL d   1      -3.565  -8.803  13.941 -0.05 -0.06    +0.473    15.349
ATOM     30  O   UNL d   1      -4.928  -9.363  13.749 -0.08 -0.00    -0.228    15.349
ATOM     31  O   UNL d   1      -3.414  -7.603  14.989 -0.03 -0.02    -0.303    15.349
ATOM     32  H   UNL d   1      -3.104  -7.973  15.848 +0.04 +0.02    +0.222    15.349
ATOM     33  O   UNL d   1      -2.831  -8.235  12.648 -0.16 +0.10    -0.303    15.349
ATOM     34  H   UNL d   1      -2.571  -8.992  12.067 -0.36 -0.23    +0.222    15.349
ATOM     35  O   UNL d   1       1.501 -11.972  15.503 -0.00 +0.03    -0.278    15.349
ATOM     36  P   UNL d   1       2.921 -12.616  15.163 +0.00 -0.07    +0.473    15.349
ATOM     37  O   UNL d   1       2.901 -14.069  14.806 -0.01 +0.02    -0.228    15.349
ATOM     38  O   UNL d   1       3.441 -11.663  13.998 -0.09 +0.08    -0.303    15.349
ATOM     39  H   UNL d   1       3.791 -10.836  14.393 +0.04 -0.08    +0.222    15.349
ATOM     40  O   UNL d   1       3.796 -12.194  16.423 +0.00 +0.04    -0.303    15.349
ATOM     41  H   UNL d   1       3.891 -11.218  16.489 +0.02 -0.04    +0.222    15.349
ATOM     42  O   UNL d   1      -0.546 -11.660  13.454 -0.08 +0.07    -0.278    15.349
ATOM     43  P   UNL d   1       0.433 -11.402  12.221 -0.02 -0.13    +0.473    15.349
ATOM     44  O   UNL d   1       0.812  -9.991  11.929 -0.39 +0.06    -0.228    15.349
ATOM     45  O   UNL d   1       1.665 -12.353  12.550 -0.53 +0.01    -0.303    15.349
ATOM     46  H   UNL d   1       1.587 -12.745  13.442 +0.04 -0.03    +0.222    15.349
ATOM     47  O   UNL d   1      -0.276 -12.190  11.019 -0.23 +0.16    -0.303    15.349
ATOM     48  H   UNL d   1       0.126 -11.912  10.170 -0.30 -0.14    +0.222    15.349
TER
ENDMDL
MODEL       84
USER    Run = 84
USER    Cluster Rank = 51
USER    Number of conformations in this cluster = 1
USER  
USER    RMSD from reference structure       = 22.392 A
USER  
USER    Estimated Free Energy of Binding    =   +2.97 kcal/mol  [=(1)+(2)+(3)-(4)]
USER    
USER    (1) Final Intermolecular Energy     =   -4.19 kcal/mol
USER        vdW + Hbond + desolv Energy     =   -3.59 kcal/mol
USER        Electrostatic Energy            =   -0.59 kcal/mol
USER    (2) Final Total Internal Energy     =  -14.11 kcal/mol
USER    (3) Torsional Free Energy           =   +7.16 kcal/mol
USER    (4) Unbound System's Energy  [=(2)] =  -14.11 kcal/mol
USER    
USER    
USER  
USER    DPF = D:/Protein_go_brrr/autodock/final/mut_D99N/IHP/dock.dpf
USER    NEWDPF move	IHP_ideal_opt.pdbqt
USER    NEWDPF about	0.035000 0.082000 -0.065000
USER    NEWDPF tran0	-15.883686 6.981395 -18.410666
USER    NEWDPF axisangle0	0.753056 0.136535 0.643635 130.600826
USER    NEWDPF quaternion0	0.684159 0.124044 0.584749 0.417861
USER    NEWDPF dihe0	-35.17 100.43 -162.26 -31.14 38.62 160.31 -8.54 -115.94 121.17 6.30 8.37 -132.45 6.63 176.81 -57.93 -115.38 100.89 -45.62 -14.64 21.16 1.29 19.86 -23.98 177.32 
USER  
USER                              x       y       z    vdW   Elec        q     RMS 
ATOM      1  C   UNL d   1     -15.560   7.699 -16.873 -0.05 -0.17    +0.194    22.392
ATOM      2  C   UNL d   1     -16.702   8.331 -17.670 -0.03 -0.09    +0.194    22.392
ATOM      3  C   UNL d   1     -16.342   8.490 -19.149 -0.02 -0.08    +0.194    22.392
ATOM      4  C   UNL d   1     -15.838   7.198 -19.787 -0.01 -0.06    +0.194    22.392
ATOM      5  C   UNL d   1     -14.778   6.473 -18.968 -0.04 -0.08    +0.194    22.392
ATOM      6  C   UNL d   1     -15.111   6.369 -17.478 -0.07 -0.10    +0.194    22.392
ATOM      7  O   UNL d   1     -16.034   7.428 -15.552 -0.09 +0.17    -0.278    22.392
ATOM      8  P   UNL d   1     -15.079   7.768 -14.318 -0.05 -0.44    +0.473    22.392
ATOM      9  O   UNL d   1     -14.652   9.191 -14.223 -0.28 +0.28    -0.228    22.392
ATOM     10  O   UNL d   1     -15.902   7.273 -13.044 -0.19 +0.19    -0.303    22.392
ATOM     11  H   UNL d   1     -15.316   7.251 -12.265 -0.46 -0.20    +0.222    22.392
ATOM     12  O   UNL d   1     -13.909   6.696 -14.394 -0.21 +0.26    -0.303    22.392
ATOM     13  H   UNL d   1     -13.448   6.689 -15.264 -0.42 -0.34    +0.222    22.392
ATOM     14  O   UNL d   1     -17.861   7.494 -17.570 -0.00 +0.06    -0.278    22.392
ATOM     15  P   UNL d   1     -19.282   8.217 -17.718 +0.01 -0.07    +0.473    22.392
ATOM     16  O   UNL d   1     -20.281   7.963 -16.633 +0.00 +0.03    -0.228    22.392
ATOM     17  O   UNL d   1     -18.917   9.760 -17.872 +0.00 +0.06    -0.303    22.392
ATOM     18  H   UNL d   1     -18.979  10.044 -18.805 +0.00 -0.04    +0.222    22.392
ATOM     19  O   UNL d   1     -19.761   7.853 -19.190 +0.00 +0.03    -0.303    22.392
ATOM     20  H   UNL d   1     -19.470   8.520 -19.839 +0.00 -0.02    +0.222    22.392
ATOM     21  O   UNL d   1     -13.907   5.992 -16.813 -0.14 +0.23    -0.278    22.392
ATOM     22  P   UNL d   1     -13.687   4.474 -16.373 -0.21 -0.01    +0.473    22.392
ATOM     23  O   UNL d   1     -14.891   3.644 -16.080 -0.44 -0.17    -0.228    22.392
ATOM     24  O   UNL d   1     -12.767   3.925 -17.550 -0.15 +0.00    -0.303    22.392
ATOM     25  H   UNL d   1     -12.961   4.454 -18.365 +0.06 -0.02    +0.222    22.392
ATOM     26  O   UNL d   1     -12.634   4.631 -15.175 -0.38 +0.06    -0.303    22.392
ATOM     27  H   UNL d   1     -12.260   5.536 -15.192 -0.36 -0.19    +0.222    22.392
ATOM     28  O   UNL d   1     -17.536   8.816 -19.848 +0.00 +0.06    -0.278    22.392
ATOM     29  P   UNL d   1     -17.567  10.050 -20.855 +0.01 -0.08    +0.473    22.392
ATOM     30  O   UNL d   1     -18.815  10.856 -20.843 +0.00 +0.03    -0.228    22.392
ATOM     31  O   UNL d   1     -16.217  10.795 -20.426 -0.00 +0.09    -0.303    22.392
ATOM     32  H   UNL d   1     -15.512  10.119 -20.300 +0.01 -0.09    +0.222    22.392
ATOM     33  O   UNL d   1     -17.166   9.365 -22.235 +0.00 +0.04    -0.303    22.392
ATOM     34  H   UNL d   1     -16.293   8.915 -22.129 +0.00 -0.03    +0.222    22.392
ATOM     35  O   UNL d   1     -14.734   5.143 -19.482 -0.01 +0.04    -0.278    22.392
ATOM     36  P   UNL d   1     -13.505   4.669 -20.382 +0.01 -0.02    +0.473    22.392
ATOM     37  O   UNL d   1     -13.094   3.241 -20.212 -0.03 -0.02    -0.228    22.392
ATOM     38  O   UNL d   1     -14.012   5.035 -21.846 +0.00 +0.01    -0.303    22.392
ATOM     39  H   UNL d   1     -14.315   5.968 -21.858 +0.01 -0.02    +0.222    22.392
ATOM     40  O   UNL d   1     -12.408   5.778 -20.070 -0.02 +0.06    -0.303    22.392
ATOM     41  H   UNL d   1     -12.812   6.664 -19.937 +0.04 -0.09    +0.222    22.392
ATOM     42  O   UNL d   1     -15.234   7.559 -21.033 -0.00 +0.06    -0.278    22.392
ATOM     43  P   UNL d   1     -13.905   8.442 -21.019 -0.02 -0.18    +0.473    22.392
ATOM     44  O   UNL d   1     -13.362   8.843 -19.691 -0.10 +0.22    -0.228    22.392
ATOM     45  O   UNL d   1     -12.901   7.576 -21.899 -0.00 +0.06    -0.303    22.392
ATOM     46  H   UNL d   1     -12.698   6.720 -21.472 +0.02 -0.04    +0.222    22.392
ATOM     47  O   UNL d   1     -14.256   9.647 -22.015 -0.00 +0.07    -0.303    22.392
ATOM     48  H   UNL d   1     -15.145   9.996 -21.800 +0.01 -0.05    +0.222    22.392
TER
ENDMDL
MODEL       20
USER    Run = 20
USER    Cluster Rank = 52
USER    Number of conformations in this cluster = 1
USER  
USER    RMSD from reference structure       = 19.246 A
USER  
USER    Estimated Free Energy of Binding    =   +3.01 kcal/mol  [=(1)+(2)+(3)-(4)]
USER    
USER    (1) Final Intermolecular Energy     =   -4.15 kcal/mol
USER        vdW + Hbond + desolv Energy     =   -4.05 kcal/mol
USER        Electrostatic Energy            =   -0.09 kcal/mol
USER    (2) Final Total Internal Energy     =  -13.37 kcal/mol
USER    (3) Torsional Free Energy           =   +7.16 kcal/mol
USER    (4) Unbound System's Energy  [=(2)] =  -13.37 kcal/mol
USER    
USER    
USER  
USER    DPF = D:/Protein_go_brrr/autodock/final/mut_D99N/IHP/dock.dpf
USER    NEWDPF move	IHP_ideal_opt.pdbqt
USER    NEWDPF about	0.035000 0.082000 -0.065000
USER    NEWDPF tran0	16.454983 -13.025366 -8.026534
USER    NEWDPF axisangle0	-0.158460 0.911839 0.378734 144.900214
USER    NEWDPF quaternion0	-0.151084 0.869397 0.361106 0.301536
USER    NEWDPF dihe0	-85.51 -179.85 -177.61 -15.05 -166.92 139.63 -56.65 -22.02 -12.07 60.20 116.57 175.69 43.50 -179.95 170.11 -12.30 -5.38 111.77 32.42 17.22 -5.38 4.95 -180.00 -4.76 
USER  
USER                              x       y       z    vdW   Elec        q     RMS 
ATOM      1  C   UNL d   1      15.026 -13.819  -8.586 -0.12 -0.00    +0.194    19.246
ATOM      2  C   UNL d   1      16.260 -13.975  -9.476 -0.05 -0.00    +0.194    19.246
ATOM      3  C   UNL d   1      17.017 -12.654  -9.632 -0.05 -0.00    +0.194    19.246
ATOM      4  C   UNL d   1      17.348 -11.990  -8.298 -0.09 +0.01    +0.194    19.246
ATOM      5  C   UNL d   1      16.172 -11.917  -7.332 -0.15 +0.01    +0.194    19.246
ATOM      6  C   UNL d   1      15.378 -13.220  -7.223 -0.11 +0.00    +0.194    19.246
ATOM      7  O   UNL d   1      14.478 -15.118  -8.351 -0.08 +0.01    -0.278    19.246
ATOM      8  P   UNL d   1      13.377 -15.672  -9.368 -0.16 -0.02    +0.473    19.246
ATOM      9  O   UNL d   1      13.904 -16.538 -10.458 -0.12 +0.00    -0.228    19.246
ATOM     10  O   UNL d   1      12.323 -16.416  -8.429 -0.13 +0.04    -0.303    19.246
ATOM     11  H   UNL d   1      11.459 -15.969  -8.489 -0.48 -0.09    +0.222    19.246
ATOM     12  O   UNL d   1      12.561 -14.391  -9.832 -0.24 +0.04    -0.303    19.246
ATOM     13  H   UNL d   1      12.403 -14.365 -10.803 -0.48 -0.05    +0.222    19.246
ATOM     14  O   UNL d   1      17.141 -14.940  -8.888 -0.01 +0.00    -0.278    19.246
ATOM     15  P   UNL d   1      18.027 -15.810  -9.899 +0.00 -0.01    +0.473    19.246
ATOM     16  O   UNL d   1      17.910 -17.298  -9.785 -0.00 +0.00    -0.228    19.246
ATOM     17  O   UNL d   1      17.616 -15.268 -11.340 -0.01 +0.01    -0.303    19.246
ATOM     18  H   UNL d   1      18.153 -14.492 -11.590 +0.02 -0.01    +0.222    19.246
ATOM     19  O   UNL d   1      19.497 -15.224  -9.745 -0.00 +0.00    -0.303    19.246
ATOM     20  H   UNL d   1      19.589 -14.359 -10.186 +0.01 -0.00    +0.222    19.246
ATOM     21  O   UNL d   1      14.148 -12.900  -6.576 -0.15 -0.01    -0.278    19.246
ATOM     22  P   UNL d   1      13.901 -13.367  -5.071 -0.14 +0.00    +0.473    19.246
ATOM     23  O   UNL d   1      12.495 -13.439  -4.577 -0.36 +0.00    -0.228    19.246
ATOM     24  O   UNL d   1      14.696 -14.745  -5.022 -0.04 -0.01    -0.303    19.246
ATOM     25  H   UNL d   1      15.322 -14.712  -4.255 +0.07 +0.01    +0.222    19.246
ATOM     26  O   UNL d   1      14.881 -12.390  -4.262 -0.15 +0.02    -0.303    19.246
ATOM     27  H   UNL d   1      15.681 -12.220  -4.800 +0.10 -0.01    +0.222    19.246
ATOM     28  O   UNL d   1      18.273 -12.949 -10.229 -0.01 +0.00    -0.278    19.246
ATOM     29  P   UNL d   1      18.628 -12.386 -11.676 -0.00 -0.01    +0.473    19.246
ATOM     30  O   UNL d   1      17.506 -12.371 -12.650 -0.06 +0.02    -0.228    19.246
ATOM     31  O   UNL d   1      19.262 -10.971 -11.278 -0.03 -0.00    -0.303    19.246
ATOM     32  H   UNL d   1      19.168 -10.848 -10.305 +0.04 +0.01    +0.222    19.246
ATOM     33  O   UNL d   1      19.908 -13.248 -12.066 -0.00 +0.01    -0.303    19.246
ATOM     34  H   UNL d   1      19.792 -14.168 -11.723 +0.01 -0.01    +0.222    19.246
ATOM     35  O   UNL d   1      16.741 -11.663  -6.049 -0.14 -0.01    -0.278    19.246
ATOM     36  P   UNL d   1      17.956 -12.549  -5.518 -0.05 +0.01    +0.473    19.246
ATOM     37  O   UNL d   1      18.980 -12.920  -6.543 -0.03 -0.01    -0.228    19.246
ATOM     38  O   UNL d   1      18.517 -11.653  -4.327 -0.12 -0.01    -0.303    19.246
ATOM     39  H   UNL d   1      19.106 -10.961  -4.696 +0.10 +0.02    +0.222    19.246
ATOM     40  O   UNL d   1      17.209 -13.743  -4.779 -0.02 -0.00    -0.303    19.246
ATOM     41  H   UNL d   1      16.271 -13.818  -5.065 +0.06 +0.00    +0.222    19.246
ATOM     42  O   UNL d   1      17.738 -10.644  -8.590 -0.17 -0.03    -0.278    19.246
ATOM     43  P   UNL d   1      19.231 -10.185  -8.266 -0.13 +0.08    +0.473    19.246
ATOM     44  O   UNL d   1      19.766  -9.012  -9.012 -0.06 -0.04    -0.228    19.246
ATOM     45  O   UNL d   1      19.202  -9.994  -6.687 -0.56 -0.12    -0.303    19.246
ATOM     46  H   UNL d   1      18.728 -10.727  -6.246 +0.07 +0.05    +0.222    19.246
ATOM     47  O   UNL d   1      20.071 -11.542  -8.415 -0.03 -0.02    -0.303    19.246
ATOM     48  H   UNL d   1      19.455 -12.287  -8.574 +0.03 +0.01    +0.222    19.246
TER
ENDMDL
MODEL       28
USER    Run = 28
USER    Cluster Rank = 53
USER    Number of conformations in this cluster = 1
USER  
USER    RMSD from reference structure       = 21.258 A
USER  
USER    Estimated Free Energy of Binding    =   +3.06 kcal/mol  [=(1)+(2)+(3)-(4)]
USER    
USER    (1) Final Intermolecular Energy     =   -4.10 kcal/mol
USER        vdW + Hbond + desolv Energy     =   -3.46 kcal/mol
USER        Electrostatic Energy            =   -0.64 kcal/mol
USER    (2) Final Total Internal Energy     =  -13.26 kcal/mol
USER    (3) Torsional Free Energy           =   +7.16 kcal/mol
USER    (4) Unbound System's Energy  [=(2)] =  -13.26 kcal/mol
USER    
USER    
USER  
USER    DPF = D:/Protein_go_brrr/autodock/final/mut_D99N/IHP/dock.dpf
USER    NEWDPF move	IHP_ideal_opt.pdbqt
USER    NEWDPF about	0.035000 0.082000 -0.065000
USER    NEWDPF tran0	-15.365203 5.258683 -17.436254
USER    NEWDPF axisangle0	-0.447622 0.092593 -0.889416 -130.743071
USER    NEWDPF quaternion0	-0.406901 0.084170 -0.808505 -0.416732
USER    NEWDPF dihe0	88.80 -142.14 49.07 110.31 169.14 105.03 -98.57 43.58 32.67 93.66 85.20 -111.61 -55.62 -48.31 -167.55 19.65 -18.69 57.43 47.56 -13.45 28.02 -42.22 -47.88 27.20 
USER  
USER                              x       y       z    vdW   Elec        q     RMS 
ATOM      1  C   UNL d   1     -15.730   5.056 -15.760 -0.13 +0.04    +0.194    21.258
ATOM      2  C   UNL d   1     -16.084   6.421 -16.353 -0.08 -0.06    +0.194    21.258
ATOM      3  C   UNL d   1     -14.975   6.947 -17.267 -0.03 -0.17    +0.194    21.258
ATOM      4  C   UNL d   1     -14.552   5.944 -18.338 -0.06 -0.08    +0.194    21.258
ATOM      5  C   UNL d   1     -14.300   4.539 -17.807 -0.09 -0.01    +0.194    21.258
ATOM      6  C   UNL d   1     -15.378   4.037 -16.844 -0.10 +0.07    +0.194    21.258
ATOM      7  O   UNL d   1     -16.877   4.560 -15.065 -0.34 -0.18    -0.278    21.258
ATOM      8  P   UNL d   1     -17.243   5.203 -13.649 -0.06 +0.05    +0.473    21.258
ATOM      9  O   UNL d   1     -16.274   6.215 -13.146 -0.24 +0.07    -0.228    21.258
ATOM     10  O   UNL d   1     -18.712   5.790 -13.859 -0.03 +0.05    -0.303    21.258
ATOM     11  H   UNL d   1     -18.675   6.552 -14.466 +0.04 -0.04    +0.222    21.258
ATOM     12  O   UNL d   1     -17.513   3.965 -12.691 -0.52 -0.09    -0.303    21.258
ATOM     13  H   UNL d   1     -17.639   4.225 -11.751 +0.03 -0.10    +0.222    21.258
ATOM     14  O   UNL d   1     -17.288   6.298 -17.120 -0.01 +0.04    -0.278    21.258
ATOM     15  P   UNL d   1     -18.542   7.164 -16.628 +0.02 -0.08    +0.473    21.258
ATOM     16  O   UNL d   1     -18.292   8.139 -15.520 -0.01 +0.06    -0.228    21.258
ATOM     17  O   UNL d   1     -19.076   7.862 -17.956 +0.00 +0.04    -0.303    21.258
ATOM     18  H   UNL d   1     -18.342   8.254 -18.468 +0.01 -0.04    +0.222    21.258
ATOM     19  O   UNL d   1     -19.682   6.090 -16.351 +0.00 +0.02    -0.303    21.258
ATOM     20  H   UNL d   1     -19.363   5.364 -15.783 +0.02 -0.00    +0.222    21.258
ATOM     21  O   UNL d   1     -14.842   2.892 -16.185 -0.33 -0.28    -0.278    21.258
ATOM     22  P   UNL d   1     -14.718   1.510 -16.972 -0.08 +0.30    +0.473    21.258
ATOM     23  O   UNL d   1     -15.104   0.257 -16.261 -0.12 -0.19    -0.228    21.258
ATOM     24  O   UNL d   1     -15.553   1.812 -18.293 -0.02 -0.09    -0.303    21.258
ATOM     25  H   UNL d   1     -14.913   1.977 -19.031 +0.02 +0.04    +0.222    21.258
ATOM     26  O   UNL d   1     -13.210   1.576 -17.511 -0.30 -0.13    -0.303    21.258
ATOM     27  H   UNL d   1     -13.144   2.271 -18.197 +0.04 +0.06    +0.222    21.258
ATOM     28  O   UNL d   1     -15.498   8.061 -17.978 -0.08 +0.22    -0.278    21.258
ATOM     29  P   UNL d   1     -15.841   9.415 -17.214 -0.04 -0.42    +0.473    21.258
ATOM     30  O   UNL d   1     -15.716   9.365 -15.734 -0.13 +0.22    -0.228    21.258
ATOM     31  O   UNL d   1     -14.875  10.427 -17.991 -0.04 +0.42    -0.303    21.258
ATOM     32  H   UNL d   1     -13.981  10.018 -18.059 -0.53 -0.60    +0.222    21.258
ATOM     33  O   UNL d   1     -17.276   9.777 -17.802 -0.01 +0.12    -0.303    21.258
ATOM     34  H   UNL d   1     -17.966   9.540 -17.135 +0.01 -0.07    +0.222    21.258
ATOM     35  O   UNL d   1     -14.325   3.684 -18.948 -0.02 -0.02    -0.278    21.258
ATOM     36  P   UNL d   1     -13.026   3.519 -19.859 -0.01 +0.04    +0.473    21.258
ATOM     37  O   UNL d   1     -11.721   3.775 -19.173 -0.07 -0.03    -0.228    21.258
ATOM     38  O   UNL d   1     -13.197   2.033 -20.406 -0.02 -0.05    -0.303    21.258
ATOM     39  H   UNL d   1     -13.575   1.471 -19.695 +0.03 +0.04    +0.222    21.258
ATOM     40  O   UNL d   1     -13.373   4.431 -21.114 +0.00 +0.00    -0.303    21.258
ATOM     41  H   UNL d   1     -13.646   5.336 -20.843 +0.02 -0.02    +0.222    21.258
ATOM     42  O   UNL d   1     -13.316   6.417 -18.883 -0.08 +0.17    -0.278    21.258
ATOM     43  P   UNL d   1     -13.353   7.513 -20.041 -0.04 -0.25    +0.473    21.258
ATOM     44  O   UNL d   1     -13.035   8.919 -19.665 -0.11 +0.24    -0.228    21.258
ATOM     45  O   UNL d   1     -12.378   6.896 -21.137 -0.01 +0.06    -0.303    21.258
ATOM     46  H   UNL d   1     -12.164   5.962 -20.941 +0.03 -0.03    +0.222    21.258
ATOM     47  O   UNL d   1     -14.789   7.285 -20.716 -0.01 +0.08    -0.303    21.258
ATOM     48  H   UNL d   1     -15.488   7.538 -20.078 +0.01 -0.07    +0.222    21.258
TER
ENDMDL
MODEL       96
USER    Run = 96
USER    Cluster Rank = 54
USER    Number of conformations in this cluster = 1
USER  
USER    RMSD from reference structure       = 11.658 A
USER  
USER    Estimated Free Energy of Binding    =   +3.07 kcal/mol  [=(1)+(2)+(3)-(4)]
USER    
USER    (1) Final Intermolecular Energy     =   -4.09 kcal/mol
USER        vdW + Hbond + desolv Energy     =   -3.39 kcal/mol
USER        Electrostatic Energy            =   -0.70 kcal/mol
USER    (2) Final Total Internal Energy     =  -11.28 kcal/mol
USER    (3) Torsional Free Energy           =   +7.16 kcal/mol
USER    (4) Unbound System's Energy  [=(2)] =  -11.28 kcal/mol
USER    
USER    
USER  
USER    DPF = D:/Protein_go_brrr/autodock/final/mut_D99N/IHP/dock.dpf
USER    NEWDPF move	IHP_ideal_opt.pdbqt
USER    NEWDPF about	0.035000 0.082000 -0.065000
USER    NEWDPF tran0	-6.538550 -14.299214 -0.908113
USER    NEWDPF axisangle0	-0.574762 -0.583823 -0.573410 -155.491649
USER    NEWDPF quaternion0	-0.561666 -0.570521 -0.560345 -0.212249
USER    NEWDPF dihe0	170.23 119.56 -179.09 -1.79 172.27 124.19 -14.12 -113.96 -50.99 111.07 112.42 99.80 -7.70 87.74 -117.17 -121.47 36.47 64.83 -28.94 -47.46 154.98 25.23 -171.13 -179.85 
USER  
USER                              x       y       z    vdW   Elec        q     RMS 
ATOM      1  C   UNL d   1      -7.362 -12.870  -0.395 -0.09 -0.15    +0.194    11.658
ATOM      2  C   UNL d   1      -7.863 -13.489  -1.701 +0.01 -0.19    +0.194    11.658
ATOM      3  C   UNL d   1      -6.706 -13.928  -2.601 +0.00 -0.18    +0.194    11.658
ATOM      4  C   UNL d   1      -5.697 -14.824  -1.887 -0.05 -0.08    +0.194    11.658
ATOM      5  C   UNL d   1      -5.256 -14.302  -0.526 -0.05 -0.06    +0.194    11.658
ATOM      6  C   UNL d   1      -6.408 -13.805   0.349 -0.04 -0.06    +0.194    11.658
ATOM      7  O   UNL d   1      -8.490 -12.647   0.455 -0.04 +0.13    -0.278    11.658
ATOM      8  P   UNL d   1      -8.419 -11.453   1.513 -0.03 -0.14    +0.473    11.658
ATOM      9  O   UNL d   1      -7.860 -10.178   0.989 -0.19 +0.10    -0.228    11.658
ATOM     10  O   UNL d   1      -9.919 -11.313   2.039 -0.01 +0.05    -0.303    11.658
ATOM     11  H   UNL d   1     -10.440 -12.085   1.751 +0.01 -0.04    +0.222    11.658
ATOM     12  O   UNL d   1      -7.679 -12.067   2.779 -0.02 +0.03    -0.303    11.658
ATOM     13  H   UNL d   1      -6.712 -12.183   2.641 +0.06 -0.03    +0.222    11.658
ATOM     14  O   UNL d   1      -8.666 -14.636  -1.396 -0.02 +0.12    -0.278    11.658
ATOM     15  P   UNL d   1     -10.204 -14.361  -1.047 -0.00 -0.14    +0.473    11.658
ATOM     16  O   UNL d   1     -11.195 -15.370  -1.537 -0.00 +0.04    -0.228    11.658
ATOM     17  O   UNL d   1     -10.219 -14.201   0.538 +0.00 +0.06    -0.303    11.658
ATOM     18  H   UNL d   1     -10.007 -13.284   0.800 +0.01 -0.05    +0.222    11.658
ATOM     19  O   UNL d   1     -10.458 -12.864  -1.522 -0.04 +0.16    -0.303    11.658
ATOM     20  H   UNL d   1      -9.893 -12.233  -1.040 +0.03 -0.16    +0.222    11.658
ATOM     21  O   UNL d   1      -5.825 -13.050   1.409 -0.04 +0.06    -0.278    11.658
ATOM     22  P   UNL d   1      -4.806 -11.869   1.072 -0.13 -0.10    +0.473    11.658
ATOM     23  O   UNL d   1      -3.363 -12.208   0.909 -0.32 -0.00    -0.228    11.658
ATOM     24  O   UNL d   1      -5.485 -11.209  -0.207 -0.26 +0.21    -0.303    11.658
ATOM     25  H   UNL d   1      -5.891 -10.348   0.070 -0.27 -0.16    +0.222    11.658
ATOM     26  O   UNL d   1      -5.153 -10.803   2.219 -0.10 +0.02    -0.303    11.658
ATOM     27  H   UNL d   1      -6.121 -10.661   2.243 +0.10 -0.02    +0.222    11.658
ATOM     28  O   UNL d   1      -7.253 -14.729  -3.641 -0.06 +0.16    -0.278    11.658
ATOM     29  P   UNL d   1      -6.781 -14.521  -5.148 -0.10 -0.21    +0.473    11.658
ATOM     30  O   UNL d   1      -7.815 -14.775  -6.184 -0.11 +0.06    -0.228    11.658
ATOM     31  O   UNL d   1      -6.196 -13.034  -5.055 -0.26 +0.27    -0.303    11.658
ATOM     32  H   UNL d   1      -5.744 -12.928  -4.186 -0.29 -0.28    +0.222    11.658
ATOM     33  O   UNL d   1      -5.464 -15.413  -5.212 -0.06 +0.07    -0.303    11.658
ATOM     34  H   UNL d   1      -4.847 -15.127  -4.494 +0.06 -0.06    +0.222    11.658
ATOM     35  O   UNL d   1      -4.669 -15.415   0.144 -0.00 +0.04    -0.278    11.658
ATOM     36  P   UNL d   1      -5.330 -16.862   0.031 +0.01 -0.05    +0.473    11.658
ATOM     37  O   UNL d   1      -5.008 -17.623  -1.216 -0.00 +0.02    -0.228    11.658
ATOM     38  O   UNL d   1      -4.823 -17.558   1.371 +0.00 +0.02    -0.303    11.658
ATOM     39  H   UNL d   1      -4.311 -18.363   1.141 +0.00 -0.01    +0.222    11.658
ATOM     40  O   UNL d   1      -6.865 -16.558   0.315 +0.00 +0.04    -0.303    11.658
ATOM     41  H   UNL d   1      -7.278 -16.052  -0.420 +0.01 -0.04    +0.222    11.658
ATOM     42  O   UNL d   1      -4.531 -14.877  -2.716 -0.05 +0.08    -0.278    11.658
ATOM     43  P   UNL d   1      -3.638 -13.565  -2.876 -0.13 -0.15    +0.473    11.658
ATOM     44  O   UNL d   1      -2.287 -13.573  -2.249 -0.19 +0.03    -0.228    11.658
ATOM     45  O   UNL d   1      -3.624 -13.342  -4.451 -0.24 +0.12    -0.303    11.658
ATOM     46  H   UNL d   1      -4.496 -13.536  -4.848 +0.10 -0.09    +0.222    11.658
ATOM     47  O   UNL d   1      -4.618 -12.394  -2.390 -0.23 +0.24    -0.303    11.658
ATOM     48  H   UNL d   1      -5.220 -12.151  -3.124 -0.40 -0.38    +0.222    11.658
TER
ENDMDL
MODEL       98
USER    Run = 98
USER    Cluster Rank = 55
USER    Number of conformations in this cluster = 1
USER  
USER    RMSD from reference structure       = 19.506 A
USER  
USER    Estimated Free Energy of Binding    =   +3.22 kcal/mol  [=(1)+(2)+(3)-(4)]
USER    
USER    (1) Final Intermolecular Energy     =   -3.94 kcal/mol
USER        vdW + Hbond + desolv Energy     =   -3.32 kcal/mol
USER        Electrostatic Energy            =   -0.61 kcal/mol
USER    (2) Final Total Internal Energy     =  -13.46 kcal/mol
USER    (3) Torsional Free Energy           =   +7.16 kcal/mol
USER    (4) Unbound System's Energy  [=(2)] =  -13.46 kcal/mol
USER    
USER    
USER  
USER    DPF = D:/Protein_go_brrr/autodock/final/mut_D99N/IHP/dock.dpf
USER    NEWDPF move	IHP_ideal_opt.pdbqt
USER    NEWDPF about	0.035000 0.082000 -0.065000
USER    NEWDPF tran0	6.430206 0.682923 20.486569
USER    NEWDPF axisangle0	-0.315161 -0.115485 -0.941986 -92.346892
USER    NEWDPF quaternion0	-0.227369 -0.083315 -0.679586 -0.692478
USER    NEWDPF dihe0	138.82 132.96 73.42 99.09 -24.60 -155.34 -97.16 -38.31 120.20 1.61 9.70 169.84 137.75 128.99 -10.51 66.23 -116.19 -145.58 22.61 -8.51 166.34 156.56 141.28 -51.48 
USER  
USER                              x       y       z    vdW   Elec        q     RMS 
ATOM      1  C   UNL d   1       5.792  -0.086  21.896 +0.00 -0.02    +0.194    19.506
ATOM      2  C   UNL d   1       4.856   0.905  21.202 -0.02 -0.02    +0.194    19.506
ATOM      3  C   UNL d   1       5.591   2.179  20.781 -0.09 -0.07    +0.194    19.506
ATOM      4  C   UNL d   1       6.849   1.905  19.962 -0.05 -0.07    +0.194    19.506
ATOM      5  C   UNL d   1       7.758   0.837  20.559 -0.00 -0.04    +0.194    19.506
ATOM      6  C   UNL d   1       7.015  -0.412  21.037 +0.00 -0.02    +0.194    19.506
ATOM      7  O   UNL d   1       5.077  -1.307  22.100 +0.00 +0.00    -0.278    19.506
ATOM      8  P   UNL d   1       4.465  -1.595  23.547 +0.01 -0.00    +0.473    19.506
ATOM      9  O   UNL d   1       3.929  -2.970  23.743 +0.00 -0.00    -0.228    19.506
ATOM     10  O   UNL d   1       5.653  -1.235  24.549 +0.00 +0.01    -0.303    19.506
ATOM     11  H   UNL d   1       6.499  -1.234  24.064 +0.00 -0.01    +0.222    19.506
ATOM     12  O   UNL d   1       3.440  -0.408  23.805 +0.00 +0.01    -0.303    19.506
ATOM     13  H   UNL d   1       2.539  -0.595  23.459 +0.01 +0.00    +0.222    19.506
ATOM     14  O   UNL d   1       4.305   0.287  20.032 -0.03 -0.00    -0.278    19.506
ATOM     15  P   UNL d   1       2.708   0.217  19.944 -0.08 +0.11    +0.473    19.506
ATOM     16  O   UNL d   1       2.131  -0.519  18.775 -0.67 -0.20    -0.228    19.506
ATOM     17  O   UNL d   1       2.270  -0.407  21.343 -0.03 -0.05    -0.303    19.506
ATOM     18  H   UNL d   1       3.003  -0.907  21.750 +0.03 +0.02    +0.222    19.506
ATOM     19  O   UNL d   1       2.235   1.727  20.105 -0.15 -0.00    -0.303    19.506
ATOM     20  H   UNL d   1       2.824   2.342  19.630 +0.02 -0.04    +0.222    19.506
ATOM     21  O   UNL d   1       7.922  -1.141  21.860 +0.00 +0.02    -0.278    19.506
ATOM     22  P   UNL d   1       8.446  -0.499  23.223 +0.00 -0.04    +0.473    19.506
ATOM     23  O   UNL d   1       7.661   0.618  23.823 +0.00 +0.03    -0.228    19.506
ATOM     24  O   UNL d   1       8.595  -1.784  24.151 +0.00 +0.02    -0.303    19.506
ATOM     25  H   UNL d   1       7.738  -1.919  24.631 +0.00 -0.01    +0.222    19.506
ATOM     26  O   UNL d   1       9.973  -0.172  22.863 +0.00 +0.03    -0.303    19.506
ATOM     27  H   UNL d   1      10.043   0.027  21.907 +0.00 -0.02    +0.222    19.506
ATOM     28  O   UNL d   1       4.727   2.905  19.915 -0.19 +0.14    -0.278    19.506
ATOM     29  P   UNL d   1       4.814   2.702  18.338 -0.22 -0.18    +0.473    19.506
ATOM     30  O   UNL d   1       5.015   1.302  17.882 -0.15 +0.02    -0.228    19.506
ATOM     31  O   UNL d   1       3.458   3.424  17.888 -0.14 +0.10    -0.303    19.506
ATOM     32  H   UNL d   1       2.732   3.124  18.482 -0.48 -0.09    +0.222    19.506
ATOM     33  O   UNL d   1       5.930   3.760  17.925 -0.14 +0.31    -0.303    19.506
ATOM     34  H   UNL d   1       6.472   3.982  18.721 -0.35 -0.38    +0.222    19.506
ATOM     35  O   UNL d   1       8.625   0.432  19.502 -0.00 +0.04    -0.278    19.506
ATOM     36  P   UNL d   1       8.191  -0.741  18.511 +0.01 -0.05    +0.473    19.506
ATOM     37  O   UNL d   1       8.200  -2.117  19.098 +0.00 +0.02    -0.228    19.506
ATOM     38  O   UNL d   1       6.758  -0.245  18.026 -0.01 +0.02    -0.303    19.506
ATOM     39  H   UNL d   1       6.825   0.686  17.725 +0.04 -0.03    +0.222    19.506
ATOM     40  O   UNL d   1       9.130  -0.487  17.253 +0.00 +0.03    -0.303    19.506
ATOM     41  H   UNL d   1       9.221   0.471  17.053 +0.01 -0.03    +0.222    19.506
ATOM     42  O   UNL d   1       7.597   3.125  19.930 -0.08 +0.20    -0.278    19.506
ATOM     43  P   UNL d   1       8.736   3.302  18.827 -0.03 -0.24    +0.473    19.506
ATOM     44  O   UNL d   1      10.145   3.071  19.251 -0.01 +0.06    -0.228    19.506
ATOM     45  O   UNL d   1       8.242   2.342  17.658 -0.02 +0.09    -0.303    19.506
ATOM     46  H   UNL d   1       8.221   1.408  17.947 +0.03 -0.05    +0.222    19.506
ATOM     47  O   UNL d   1       8.427   4.750  18.212 -0.07 +0.29    -0.303    19.506
ATOM     48  H   UNL d   1       7.552   5.055  18.528 -0.47 -0.51    +0.222    19.506
TER
ENDMDL
MODEL       17
USER    Run = 17
USER    Cluster Rank = 56
USER    Number of conformations in this cluster = 1
USER  
USER    RMSD from reference structure       = 15.070 A
USER  
USER    Estimated Free Energy of Binding    =   +3.25 kcal/mol  [=(1)+(2)+(3)-(4)]
USER    
USER    (1) Final Intermolecular Energy     =   -3.91 kcal/mol
USER        vdW + Hbond + desolv Energy     =   -3.70 kcal/mol
USER        Electrostatic Energy            =   -0.22 kcal/mol
USER    (2) Final Total Internal Energy     =  -12.38 kcal/mol
USER    (3) Torsional Free Energy           =   +7.16 kcal/mol
USER    (4) Unbound System's Energy  [=(2)] =  -12.38 kcal/mol
USER    
USER    
USER  
USER    DPF = D:/Protein_go_brrr/autodock/final/mut_D99N/IHP/dock.dpf
USER    NEWDPF move	IHP_ideal_opt.pdbqt
USER    NEWDPF about	0.035000 0.082000 -0.065000
USER    NEWDPF tran0	-2.670980 -9.060377 14.563825
USER    NEWDPF axisangle0	-0.517377 0.782073 0.347395 -68.485352
USER    NEWDPF quaternion0	-0.291128 0.440072 0.195479 -0.826662
USER    NEWDPF dihe0	92.87 35.83 57.93 98.93 4.96 179.93 8.99 -59.07 19.29 97.22 -44.61 -176.35 -35.12 151.39 -59.17 -39.39 -71.77 -90.64 42.93 -3.82 -180.00 141.47 37.88 -138.71 
USER  
USER                              x       y       z    vdW   Elec        q     RMS 
ATOM      1  C   UNL d   1      -0.999  -9.129  14.135 -0.10 -0.02    +0.194    15.070
ATOM      2  C   UNL d   1      -1.429 -10.060  15.270 -0.02 -0.01    +0.194    15.070
ATOM      3  C   UNL d   1      -2.370  -9.359  16.252 -0.00 +0.00    +0.194    15.070
ATOM      4  C   UNL d   1      -3.561  -8.691  15.571 -0.02 +0.01    +0.194    15.070
ATOM      5  C   UNL d   1      -3.190  -7.843  14.361 -0.09 +0.00    +0.194    15.070
ATOM      6  C   UNL d   1      -2.201  -8.521  13.410 -0.14 -0.04    +0.194    15.070
ATOM      7  O   UNL d   1      -0.270  -9.901  13.177 -0.15 +0.07    -0.278    15.070
ATOM      8  P   UNL d   1       1.261 -10.241  13.483 -0.12 -0.09    +0.473    15.070
ATOM      9  O   UNL d   1       1.678 -10.053  14.899 -0.04 +0.03    -0.228    15.070
ATOM     10  O   UNL d   1       1.433 -11.742  12.971 -0.67 +0.03    -0.303    15.070
ATOM     11  H   UNL d   1       0.882 -12.337  13.513 +0.04 -0.03    +0.222    15.070
ATOM     12  O   UNL d   1       2.089  -9.424  12.402 -0.35 +0.09    -0.303    15.070
ATOM     13  H   UNL d   1       1.523  -9.019  11.706 +0.05 -0.06    +0.222    15.070
ATOM     14  O   UNL d   1      -2.110 -11.191  14.713 -0.02 +0.04    -0.278    15.070
ATOM     15  P   UNL d   1      -1.583 -12.636  15.161 +0.02 -0.04    +0.473    15.070
ATOM     16  O   UNL d   1      -1.806 -13.760  14.198 -0.00 +0.02    -0.228    15.070
ATOM     17  O   UNL d   1      -0.042 -12.401  15.489 +0.00 +0.03    -0.303    15.070
ATOM     18  H   UNL d   1       0.359 -11.770  14.861 +0.03 -0.03    +0.222    15.070
ATOM     19  O   UNL d   1      -2.191 -12.847  16.615 +0.00 +0.01    -0.303    15.070
ATOM     20  H   UNL d   1      -3.102 -12.507  16.678 +0.01 -0.00    +0.222    15.070
ATOM     21  O   UNL d   1      -1.697  -7.505  12.546 -0.20 +0.03    -0.278    15.070
ATOM     22  P   UNL d   1      -0.581  -6.496  13.076 -0.18 +0.02    +0.473    15.070
ATOM     23  O   UNL d   1      -0.551  -6.181  14.534 -0.15 -0.07    -0.228    15.070
ATOM     24  O   UNL d   1       0.751  -7.156  12.509 -0.21 +0.03    -0.303    15.070
ATOM     25  H   UNL d   1       0.837  -8.062  12.902 +0.09 -0.03    +0.222    15.070
ATOM     26  O   UNL d   1      -0.777  -5.246  12.091 -0.31 +0.02    -0.303    15.070
ATOM     27  H   UNL d   1      -1.559  -5.403  11.524 -0.06 -0.04    +0.222    15.070
ATOM     28  O   UNL d   1      -2.929 -10.357  17.097 +0.00 -0.00    -0.278    15.070
ATOM     29  P   UNL d   1      -4.456 -10.780  16.940 +0.01 +0.01    +0.473    15.070
ATOM     30  O   UNL d   1      -5.450  -9.724  17.264 +0.00 -0.01    -0.228    15.070
ATOM     31  O   UNL d   1      -4.442 -11.328  15.437 -0.00 +0.00    -0.303    15.070
ATOM     32  H   UNL d   1      -3.814 -12.085  15.384 +0.01 -0.01    +0.222    15.070
ATOM     33  O   UNL d   1      -4.522 -12.118  17.801 +0.00 -0.00    -0.303    15.070
ATOM     34  H   UNL d   1      -3.627 -12.302  18.177 +0.00 +0.00    +0.222    15.070
ATOM     35  O   UNL d   1      -4.403  -7.650  13.637 -0.09 -0.01    -0.278    15.070
ATOM     36  P   UNL d   1      -4.471  -6.583  12.453 -0.24 +0.03    +0.473    15.070
ATOM     37  O   UNL d   1      -3.520  -5.434  12.564 -0.28 -0.03    -0.228    15.070
ATOM     38  O   UNL d   1      -4.240  -7.501  11.172 -0.26 +0.01    -0.303    15.070
ATOM     39  H   UNL d   1      -3.441  -8.054  11.313 +0.03 -0.09    +0.222    15.070
ATOM     40  O   UNL d   1      -6.022  -6.234  12.399 -0.20 -0.05    -0.303    15.070
ATOM     41  H   UNL d   1      -6.356  -5.926  13.270 +0.09 +0.04    +0.222    15.070
ATOM     42  O   UNL d   1      -4.152  -7.813  16.535 -0.01 -0.03    -0.278    15.070
ATOM     43  P   UNL d   1      -4.024  -6.237  16.323 -0.05 +0.10    +0.473    15.070
ATOM     44  O   UNL d   1      -2.690  -5.703  15.929 -0.14 -0.09    -0.228    15.070
ATOM     45  O   UNL d   1      -5.183  -5.931  15.276 -0.09 -0.05    -0.303    15.070
ATOM     46  H   UNL d   1      -4.824  -5.576  14.439 +0.10 +0.04    +0.222    15.070
ATOM     47  O   UNL d   1      -4.638  -5.634  17.675 -0.05 -0.07    -0.303    15.070
ATOM     48  H   UNL d   1      -4.883  -6.370  18.274 +0.03 +0.04    +0.222    15.070
TER
ENDMDL
MODEL       56
USER    Run = 56
USER    Cluster Rank = 57
USER    Number of conformations in this cluster = 1
USER  
USER    RMSD from reference structure       = 20.340 A
USER  
USER    Estimated Free Energy of Binding    =   +3.28 kcal/mol  [=(1)+(2)+(3)-(4)]
USER    
USER    (1) Final Intermolecular Energy     =   -3.88 kcal/mol
USER        vdW + Hbond + desolv Energy     =   -3.47 kcal/mol
USER        Electrostatic Energy            =   -0.41 kcal/mol
USER    (2) Final Total Internal Energy     =  -13.91 kcal/mol
USER    (3) Torsional Free Energy           =   +7.16 kcal/mol
USER    (4) Unbound System's Energy  [=(2)] =  -13.91 kcal/mol
USER    
USER    
USER  
USER    DPF = D:/Protein_go_brrr/autodock/final/mut_D99N/IHP/dock.dpf
USER    NEWDPF move	IHP_ideal_opt.pdbqt
USER    NEWDPF about	0.035000 0.082000 -0.065000
USER    NEWDPF tran0	-14.074261 13.150518 -14.519666
USER    NEWDPF axisangle0	-0.116930 0.499473 -0.858402 -172.576309
USER    NEWDPF quaternion0	-0.116685 0.498425 -0.856601 -0.064739
USER    NEWDPF dihe0	135.41 111.92 48.85 53.59 -28.88 -72.10 43.67 -79.84 17.88 10.55 37.56 159.03 153.31 161.16 -7.71 95.96 -72.09 178.08 8.88 -21.34 156.16 -27.01 -162.65 22.64 
USER  
USER                              x       y       z    vdW   Elec        q     RMS 
ATOM      1  C   UNL d   1     -15.069  12.642 -13.202 -0.07 -0.08    +0.194    20.340
ATOM      2  C   UNL d   1     -13.958  13.633 -12.848 -0.08 -0.07    +0.194    20.340
ATOM      3  C   UNL d   1     -12.641  13.278 -13.540 -0.07 -0.11    +0.194    20.340
ATOM      4  C   UNL d   1     -12.786  13.089 -15.048 -0.16 -0.14    +0.194    20.340
ATOM      5  C   UNL d   1     -13.954  12.198 -15.452 -0.08 -0.20    +0.194    20.340
ATOM      6  C   UNL d   1     -15.257  12.512 -14.714 -0.07 -0.10    +0.194    20.340
ATOM      7  O   UNL d   1     -16.296  13.135 -12.661 -0.01 +0.08    -0.278    20.340
ATOM      8  P   UNL d   1     -16.996  12.307 -11.487 +0.01 -0.17    +0.473    20.340
ATOM      9  O   UNL d   1     -18.467  12.501 -11.368 -0.01 +0.06    -0.228    20.340
ATOM     10  O   UNL d   1     -16.585  10.794 -11.784 -0.07 +0.18    -0.303    20.340
ATOM     11  H   UNL d   1     -16.349  10.698 -12.725 +0.06 -0.12    +0.222    20.340
ATOM     12  O   UNL d   1     -16.145  12.634 -10.186 -0.04 +0.11    -0.303    20.340
ATOM     13  H   UNL d   1     -16.221  13.573  -9.902 +0.05 -0.06    +0.222    20.340
ATOM     14  O   UNL d   1     -14.354  14.946 -13.264 -0.01 +0.06    -0.278    20.340
ATOM     15  P   UNL d   1     -14.693  15.993 -12.101 +0.00 -0.07    +0.473    20.340
ATOM     16  O   UNL d   1     -15.816  16.947 -12.362 -0.00 +0.02    -0.228    20.340
ATOM     17  O   UNL d   1     -14.943  15.081 -10.819 -0.00 +0.05    -0.303    20.340
ATOM     18  H   UNL d   1     -15.533  14.332 -11.029 +0.03 -0.05    +0.222    20.340
ATOM     19  O   UNL d   1     -13.293  16.662 -11.749 -0.00 +0.03    -0.303    20.340
ATOM     20  H   UNL d   1     -12.559  16.234 -12.227 +0.01 -0.03    +0.222    20.340
ATOM     21  O   UNL d   1     -16.132  11.408 -14.934 -0.04 +0.15    -0.278    20.340
ATOM     22  P   UNL d   1     -15.643   9.930 -14.589 -0.11 -0.39    +0.473    20.340
ATOM     23  O   UNL d   1     -14.534   9.765 -13.605 -0.30 +0.24    -0.228    20.340
ATOM     24  O   UNL d   1     -17.008   9.222 -14.181 -0.03 +0.16    -0.303    20.340
ATOM     25  H   UNL d   1     -17.097   9.268 -13.195 +0.06 -0.13    +0.222    20.340
ATOM     26  O   UNL d   1     -15.381   9.325 -16.051 -0.11 +0.38    -0.303    20.340
ATOM     27  H   UNL d   1     -14.424   9.151 -16.160 -0.30 -0.58    +0.222    20.340
ATOM     28  O   UNL d   1     -11.763  14.385 -13.382 -0.08 +0.10    -0.278    20.340
ATOM     29  P   UNL d   1     -10.906  14.548 -12.049 -0.06 -0.12    +0.473    20.340
ATOM     30  O   UNL d   1      -9.811  13.561 -11.867 -0.16 +0.08    -0.228    20.340
ATOM     31  O   UNL d   1     -10.483  16.087 -12.176 -0.01 +0.04    -0.303    20.340
ATOM     32  H   UNL d   1     -11.124  16.632 -11.663 +0.01 -0.02    +0.222    20.340
ATOM     33  O   UNL d   1     -12.036  14.585 -10.928 -0.05 +0.06    -0.303    20.340
ATOM     34  H   UNL d   1     -12.896  14.835 -11.347 +0.03 -0.04    +0.222    20.340
ATOM     35  O   UNL d   1     -14.181  12.461 -16.835 -0.07 +0.30    -0.278    20.340
ATOM     36  P   UNL d   1     -13.900  13.912 -17.435 -0.03 -0.24    +0.473    20.340
ATOM     37  O   UNL d   1     -14.033  15.046 -16.469 -0.01 +0.07    -0.228    20.340
ATOM     38  O   UNL d   1     -12.437  13.737 -18.040 -0.06 +0.18    -0.303    20.340
ATOM     39  H   UNL d   1     -11.846  13.368 -17.349 -0.01 -0.17    +0.222    20.340
ATOM     40  O   UNL d   1     -14.843  13.939 -18.715 -0.01 +0.10    -0.303    20.340
ATOM     41  H   UNL d   1     -14.951  13.044 -19.107 +0.01 -0.10    +0.222    20.340
ATOM     42  O   UNL d   1     -11.590  12.446 -15.502 -0.10 +0.29    -0.278    20.340
ATOM     43  P   UNL d   1     -10.343  13.347 -15.926 -0.16 -0.22    +0.473    20.340
ATOM     44  O   UNL d   1      -9.620  12.976 -17.174 -0.40 +0.09    -0.228    20.340
ATOM     45  O   UNL d   1     -10.963  14.813 -15.944 -0.04 +0.09    -0.303    20.340
ATOM     46  H   UNL d   1     -11.889  14.807 -16.257 +0.03 -0.08    +0.222    20.340
ATOM     47  O   UNL d   1      -9.451  13.387 -14.594 -0.51 +0.11    -0.303    20.340
ATOM     48  H   UNL d   1     -10.017  13.186 -13.821 -0.46 -0.15    +0.222    20.340
TER
ENDMDL
MODEL       59
USER    Run = 59
USER    Cluster Rank = 58
USER    Number of conformations in this cluster = 1
USER  
USER    RMSD from reference structure       = 14.548 A
USER  
USER    Estimated Free Energy of Binding    =   +3.29 kcal/mol  [=(1)+(2)+(3)-(4)]
USER    
USER    (1) Final Intermolecular Energy     =   -3.87 kcal/mol
USER        vdW + Hbond + desolv Energy     =   -3.83 kcal/mol
USER        Electrostatic Energy            =   -0.03 kcal/mol
USER    (2) Final Total Internal Energy     =  -15.81 kcal/mol
USER    (3) Torsional Free Energy           =   +7.16 kcal/mol
USER    (4) Unbound System's Energy  [=(2)] =  -15.81 kcal/mol
USER    
USER    
USER  
USER    DPF = D:/Protein_go_brrr/autodock/final/mut_D99N/IHP/dock.dpf
USER    NEWDPF move	IHP_ideal_opt.pdbqt
USER    NEWDPF about	0.035000 0.082000 -0.065000
USER    NEWDPF tran0	7.246959 1.034039 -14.101452
USER    NEWDPF axisangle0	-0.791785 0.537021 0.291006 -142.885302
USER    NEWDPF quaternion0	-0.750616 0.509099 0.275876 -0.318254
USER    NEWDPF dihe0	-177.51 -41.73 101.58 119.68 88.40 101.78 -147.19 -112.75 74.01 -3.45 -25.72 -131.39 -122.32 97.10 41.08 -132.61 153.53 -63.13 43.87 -3.85 165.61 -10.28 0.04 159.73 
USER  
USER                              x       y       z    vdW   Elec        q     RMS 
ATOM      1  C   UNL d   1       8.423   1.144 -15.362 -0.11 +0.05    +0.194    14.548
ATOM      2  C   UNL d   1       8.801   1.823 -14.044 -0.13 +0.04    +0.194    14.548
ATOM      3  C   UNL d   1       7.626   2.604 -13.452 -0.14 +0.03    +0.194    14.548
ATOM      4  C   UNL d   1       6.352   1.772 -13.328 -0.24 +0.04    +0.194    14.548
ATOM      5  C   UNL d   1       6.000   0.985 -14.584 -0.20 +0.05    +0.194    14.548
ATOM      6  C   UNL d   1       7.189   0.254 -15.211 -0.12 +0.06    +0.194    14.548
ATOM      7  O   UNL d   1       9.509   0.303 -15.757 -0.10 -0.12    -0.278    14.548
ATOM      8  P   UNL d   1      10.784   0.980 -16.442 -0.03 +0.13    +0.473    14.548
ATOM      9  O   UNL d   1      10.560   1.496 -17.820 -0.01 -0.04    -0.228    14.548
ATOM     10  O   UNL d   1      11.220   2.115 -15.410 -0.02 -0.05    -0.303    14.548
ATOM     11  H   UNL d   1      10.908   1.881 -14.516 +0.04 +0.04    +0.222    14.548
ATOM     12  O   UNL d   1      11.953  -0.083 -16.281 -0.06 -0.12    -0.303    14.548
ATOM     13  H   UNL d   1      12.434  -0.001 -15.427 +0.04 +0.07    +0.222    14.548
ATOM     14  O   UNL d   1       9.205   0.822 -13.102 -0.15 -0.07    -0.278    14.548
ATOM     15  P   UNL d   1      10.622   1.041 -12.388 -0.20 +0.08    +0.473    14.548
ATOM     16  O   UNL d   1      10.789   0.439 -11.029 -0.35 -0.02    -0.228    14.548
ATOM     17  O   UNL d   1      11.678   0.486 -13.444 -0.13 -0.07    -0.303    14.548
ATOM     18  H   UNL d   1      11.241   0.241 -14.282 +0.06 +0.08    +0.222    14.548
ATOM     19  O   UNL d   1      10.873   2.609 -12.479 -0.06 -0.04    -0.303    14.548
ATOM     20  H   UNL d   1      10.172   3.114 -12.026 +0.06 +0.03    +0.222    14.548
ATOM     21  O   UNL d   1       6.789  -0.132 -16.524 -0.13 -0.08    -0.278    14.548
ATOM     22  P   UNL d   1       6.433   0.986 -17.605 -0.00 +0.10    +0.473    14.548
ATOM     23  O   UNL d   1       7.547   1.804 -18.166 -0.01 -0.04    -0.228    14.548
ATOM     24  O   UNL d   1       5.611   0.150 -18.681 -0.05 -0.07    -0.303    14.548
ATOM     25  H   UNL d   1       5.254  -0.660 -18.234 +0.08 +0.07    +0.222    14.548
ATOM     26  O   UNL d   1       5.270   1.800 -16.860 -0.02 -0.06    -0.303    14.548
ATOM     27  H   UNL d   1       4.456   1.257 -16.845 +0.07 +0.05    +0.222    14.548
ATOM     28  O   UNL d   1       7.975   2.960 -12.120 -0.16 -0.04    -0.278    14.548
ATOM     29  P   UNL d   1       8.495   4.428 -11.790 -0.05 +0.07    +0.473    14.548
ATOM     30  O   UNL d   1       9.282   4.563 -10.537 -0.12 -0.04    -0.228    14.548
ATOM     31  O   UNL d   1       9.247   4.773 -13.160 -0.01 -0.04    -0.303    14.548
ATOM     32  H   UNL d   1      10.204   4.566 -13.054 +0.03 +0.02    +0.222    14.548
ATOM     33  O   UNL d   1       7.159   5.287 -11.896 -0.04 -0.05    -0.303    14.548
ATOM     34  H   UNL d   1       6.738   5.120 -12.775 +0.05 +0.03    +0.222    14.548
ATOM     35  O   UNL d   1       5.066  -0.010 -14.169 -0.29 -0.07    -0.278    14.548
ATOM     36  P   UNL d   1       3.701  -0.216 -14.968 -0.28 +0.15    +0.473    14.548
ATOM     37  O   UNL d   1       2.632  -0.964 -14.236 -0.38 -0.09    -0.228    14.548
ATOM     38  O   UNL d   1       3.313   1.282 -15.343 -0.11 -0.09    -0.303    14.548
ATOM     39  H   UNL d   1       4.029   1.883 -15.045 +0.09 +0.05    +0.222    14.548
ATOM     40  O   UNL d   1       4.203  -0.838 -16.343 -0.63 -0.12    -0.303    14.548
ATOM     41  H   UNL d   1       4.983  -0.355 -16.698 +0.10 +0.07    +0.222    14.548
ATOM     42  O   UNL d   1       5.279   2.689 -13.090 -0.01 -0.05    -0.278    14.548
ATOM     43  P   UNL d   1       5.140   3.972 -14.026 -0.03 +0.08    +0.473    14.548
ATOM     44  O   UNL d   1       6.329   4.368 -14.831 -0.02 -0.03    -0.228    14.548
ATOM     45  O   UNL d   1       3.850   3.633 -14.895 -0.08 -0.07    -0.303    14.548
ATOM     46  H   UNL d   1       4.094   3.283 -15.775 +0.05 +0.05    +0.222    14.548
ATOM     47  O   UNL d   1       4.575   5.093 -13.029 -0.07 -0.05    -0.303    14.548
ATOM     48  H   UNL d   1       5.104   5.089 -12.205 +0.07 +0.04    +0.222    14.548
TER
ENDMDL
MODEL       51
USER    Run = 51
USER    Cluster Rank = 59
USER    Number of conformations in this cluster = 1
USER  
USER    RMSD from reference structure       = 13.456 A
USER  
USER    Estimated Free Energy of Binding    =   +3.32 kcal/mol  [=(1)+(2)+(3)-(4)]
USER    
USER    (1) Final Intermolecular Energy     =   -3.84 kcal/mol
USER        vdW + Hbond + desolv Energy     =   -3.63 kcal/mol
USER        Electrostatic Energy            =   -0.21 kcal/mol
USER    (2) Final Total Internal Energy     =  -15.50 kcal/mol
USER    (3) Torsional Free Energy           =   +7.16 kcal/mol
USER    (4) Unbound System's Energy  [=(2)] =  -15.50 kcal/mol
USER    
USER    
USER  
USER    DPF = D:/Protein_go_brrr/autodock/final/mut_D99N/IHP/dock.dpf
USER    NEWDPF move	IHP_ideal_opt.pdbqt
USER    NEWDPF about	0.035000 0.082000 -0.065000
USER    NEWDPF tran0	-1.803207 -15.163711 4.495578
USER    NEWDPF axisangle0	0.518436 0.807815 0.280463 132.356055
USER    NEWDPF quaternion0	0.474268 0.738993 0.256569 0.403896
USER    NEWDPF dihe0	149.07 146.70 142.76 8.50 123.02 83.43 -61.34 -1.59 6.39 88.69 82.43 -92.68 -16.84 -175.52 178.80 10.38 -65.53 96.13 -31.47 5.04 12.90 -12.34 173.71 13.73 
USER  
USER                              x       y       z    vdW   Elec        q     RMS 
ATOM      1  C   UNL d   1      -3.170 -14.314   5.123 -0.04 -0.01    +0.194    13.456
ATOM      2  C   UNL d   1      -3.490 -15.548   4.278 -0.00 -0.01    +0.194    13.456
ATOM      3  C   UNL d   1      -2.615 -15.618   3.024 -0.01 -0.01    +0.194    13.456
ATOM      4  C   UNL d   1      -1.123 -15.496   3.325 -0.03 -0.02    +0.194    13.456
ATOM      5  C   UNL d   1      -0.771 -14.345   4.259 -0.10 -0.02    +0.194    13.456
ATOM      6  C   UNL d   1      -1.685 -14.238   5.481 -0.08 -0.02    +0.194    13.456
ATOM      7  O   UNL d   1      -3.899 -14.411   6.349 -0.02 -0.00    -0.278    13.456
ATOM      8  P   UNL d   1      -4.269 -13.063   7.122 -0.09 +0.06    +0.473    13.456
ATOM      9  O   UNL d   1      -4.573 -11.898   6.247 -0.19 -0.02    -0.228    13.456
ATOM     10  O   UNL d   1      -5.489 -13.478   8.062 -0.55 -0.22    -0.303    13.456
ATOM     11  H   UNL d   1      -5.786 -14.379   7.833 +0.02 +0.07    +0.222    13.456
ATOM     12  O   UNL d   1      -3.096 -12.854   8.173 -0.14 +0.11    -0.303    13.456
ATOM     13  H   UNL d   1      -2.436 -12.184   7.886 -0.19 -0.24    +0.222    13.456
ATOM     14  O   UNL d   1      -3.260 -16.724   5.063 +0.00 +0.01    -0.278    13.456
ATOM     15  P   UNL d   1      -4.365 -17.879   4.963 +0.00 -0.01    +0.473    13.456
ATOM     16  O   UNL d   1      -5.054 -18.260   6.236 +0.00 +0.00    -0.228    13.456
ATOM     17  O   UNL d   1      -5.374 -17.355   3.848 +0.00 +0.01    -0.303    13.456
ATOM     18  H   UNL d   1      -4.892 -17.031   3.062 +0.00 -0.01    +0.222    13.456
ATOM     19  O   UNL d   1      -3.631 -19.065   4.199 +0.00 +0.01    -0.303    13.456
ATOM     20  H   UNL d   1      -3.213 -18.758   3.373 +0.00 -0.01    +0.222    13.456
ATOM     21  O   UNL d   1      -1.458 -12.951   6.053 -0.20 +0.05    -0.278    13.456
ATOM     22  P   UNL d   1      -0.322 -12.765   7.158 -0.27 -0.11    +0.473    13.456
ATOM     23  O   UNL d   1      -0.501 -11.694   8.179 -0.89 +0.14    -0.228    13.456
ATOM     24  O   UNL d   1      -0.199 -14.238   7.749 -0.08 +0.05    -0.303    13.456
ATOM     25  H   UNL d   1       0.010 -14.854   7.002 +0.07 -0.03    +0.222    13.456
ATOM     26  O   UNL d   1       0.997 -12.661   6.253 -0.64 -0.03    -0.303    13.456
ATOM     27  H   UNL d   1       1.373 -13.556   6.127 +0.01 -0.04    +0.222    13.456
ATOM     28  O   UNL d   1      -2.781 -16.912   2.459 -0.00 +0.02    -0.278    13.456
ATOM     29  P   UNL d   1      -3.786 -17.136   1.243 +0.00 -0.03    +0.473    13.456
ATOM     30  O   UNL d   1      -4.758 -16.038   1.005 -0.00 +0.02    -0.228    13.456
ATOM     31  O   UNL d   1      -2.741 -17.448   0.071 +0.00 +0.02    -0.303    13.456
ATOM     32  H   UNL d   1      -1.833 -17.256   0.401 +0.01 -0.02    +0.222    13.456
ATOM     33  O   UNL d   1      -4.388 -18.573   1.568 +0.00 +0.02    -0.303    13.456
ATOM     34  H   UNL d   1      -4.806 -18.552   2.464 +0.00 -0.01    +0.222    13.456
ATOM     35  O   UNL d   1       0.542 -14.626   4.740 -0.11 +0.05    -0.278    13.456
ATOM     36  P   UNL d   1       0.854 -16.012   5.467 -0.01 -0.06    +0.473    13.456
ATOM     37  O   UNL d   1      -0.333 -16.724   6.033 -0.01 +0.02    -0.228    13.456
ATOM     38  O   UNL d   1       1.615 -16.816   4.323 -0.03 +0.05    -0.303    13.456
ATOM     39  H   UNL d   1       1.003 -16.961   3.570 +0.04 -0.03    +0.222    13.456
ATOM     40  O   UNL d   1       2.007 -15.609   6.485 -0.06 +0.05    -0.303    13.456
ATOM     41  H   UNL d   1       1.787 -14.789   6.980 +0.07 -0.03    +0.222    13.456
ATOM     42  O   UNL d   1      -0.469 -15.241   2.077 -0.03 +0.03    -0.278    13.456
ATOM     43  P   UNL d   1       0.194 -16.460   1.291 -0.01 -0.05    +0.473    13.456
ATOM     44  O   UNL d   1       0.081 -16.462  -0.194 -0.03 +0.02    -0.228    13.456
ATOM     45  O   UNL d   1       1.691 -16.451   1.830 -0.10 +0.05    -0.303    13.456
ATOM     46  H   UNL d   1       1.797 -15.836   2.583 +0.07 -0.05    +0.222    13.456
ATOM     47  O   UNL d   1      -0.411 -17.747   2.032 -0.00 +0.02    -0.303    13.456
ATOM     48  H   UNL d   1      -1.274 -17.975   1.629 +0.01 -0.01    +0.222    13.456
TER
ENDMDL
MODEL       79
USER    Run = 79
USER    Cluster Rank = 60
USER    Number of conformations in this cluster = 1
USER  
USER    RMSD from reference structure       = 14.593 A
USER  
USER    Estimated Free Energy of Binding    =   +3.35 kcal/mol  [=(1)+(2)+(3)-(4)]
USER    
USER    (1) Final Intermolecular Energy     =   -3.81 kcal/mol
USER        vdW + Hbond + desolv Energy     =   -3.79 kcal/mol
USER        Electrostatic Energy            =   -0.02 kcal/mol
USER    (2) Final Total Internal Energy     =  -15.11 kcal/mol
USER    (3) Torsional Free Energy           =   +7.16 kcal/mol
USER    (4) Unbound System's Energy  [=(2)] =  -15.11 kcal/mol
USER    
USER    
USER  
USER    DPF = D:/Protein_go_brrr/autodock/final/mut_D99N/IHP/dock.dpf
USER    NEWDPF move	IHP_ideal_opt.pdbqt
USER    NEWDPF about	0.035000 0.082000 -0.065000
USER    NEWDPF tran0	8.510590 12.276927 9.592155
USER    NEWDPF axisangle0	0.699503 -0.704720 0.118596 -108.436246
USER    NEWDPF quaternion0	0.567471 -0.571703 0.096211 -0.584701
USER    NEWDPF dihe0	139.23 35.43 168.70 11.53 -20.54 122.35 1.29 -153.70 1.60 76.91 112.84 104.90 -38.51 85.29 -165.69 149.35 -63.21 85.35 18.82 -44.91 -48.31 -51.08 5.80 -40.19 
USER  
USER                              x       y       z    vdW   Elec        q     RMS 
ATOM      1  C   UNL d   1       9.155  10.693   9.840 -0.15 +0.00    +0.194    14.593
ATOM      2  C   UNL d   1       9.564  11.377   8.534 -0.13 +0.00    +0.194    14.593
ATOM      3  C   UNL d   1       8.381  12.081   7.867 -0.22 -0.00    +0.194    14.593
ATOM      4  C   UNL d   1       7.638  13.028   8.806 -0.25 -0.02    +0.194    14.593
ATOM      5  C   UNL d   1       7.310  12.424  10.166 -0.22 -0.02    +0.194    14.593
ATOM      6  C   UNL d   1       8.477  11.667  10.804 -0.14 -0.00    +0.194    14.593
ATOM      7  O   UNL d   1      10.338  10.212  10.481 -0.03 -0.01    -0.278    14.593
ATOM      8  P   UNL d   1      10.658   8.649  10.412 -0.02 +0.05    +0.473    14.593
ATOM      9  O   UNL d   1       9.849   7.883   9.425 -0.10 -0.05    -0.228    14.593
ATOM     10  O   UNL d   1      12.225   8.587  10.121 -0.00 -0.03    -0.303    14.593
ATOM     11  H   UNL d   1      12.527   9.446   9.773 +0.01 +0.01    +0.222    14.593
ATOM     12  O   UNL d   1      10.578   8.143  11.916 -0.02 -0.02    -0.303    14.593
ATOM     13  H   UNL d   1      10.511   8.878  12.566 +0.03 +0.01    +0.222    14.593
ATOM     14  O   UNL d   1      10.576  12.352   8.814 -0.02 -0.00    -0.278    14.593
ATOM     15  P   UNL d   1      12.089  11.828   8.834 -0.00 +0.01    +0.473    14.593
ATOM     16  O   UNL d   1      13.121  12.733   8.236 -0.00 -0.00    -0.228    14.593
ATOM     17  O   UNL d   1      12.367  11.503  10.368 -0.00 -0.00    -0.303    14.593
ATOM     18  H   UNL d   1      11.899  10.692  10.646 +0.01 +0.00    +0.222    14.593
ATOM     19  O   UNL d   1      12.012  10.368   8.207 -0.01 -0.01    -0.303    14.593
ATOM     20  H   UNL d   1      11.300   9.839   8.612 +0.03 +0.01    +0.222    14.593
ATOM     21  O   UNL d   1       7.931  10.890  11.868 -0.09 +0.00    -0.278    14.593
ATOM     22  P   UNL d   1       8.829  10.549  13.141 -0.08 -0.00    +0.473    14.593
ATOM     23  O   UNL d   1       8.803   9.154  13.670 -0.12 +0.00    -0.228    14.593
ATOM     24  O   UNL d   1      10.263  11.059  12.675 -0.02 +0.00    -0.303    14.593
ATOM     25  H   UNL d   1      10.705  10.324  12.178 +0.02 +0.00    +0.222    14.593
ATOM     26  O   UNL d   1       8.387  11.698  14.168 -0.09 +0.00    -0.303    14.593
ATOM     27  H   UNL d   1       8.462  12.569  13.728 +0.03 -0.00    +0.222    14.593
ATOM     28  O   UNL d   1       8.900  12.906   6.833 -0.15 +0.01    -0.278    14.593
ATOM     29  P   UNL d   1       9.738  12.267   5.638 -0.07 +0.00    +0.473    14.593
ATOM     30  O   UNL d   1       9.217  12.538   4.274 -0.13 -0.00    -0.228    14.593
ATOM     31  O   UNL d   1      11.194  12.832   5.985 -0.02 -0.00    -0.303    14.593
ATOM     32  H   UNL d   1      11.405  12.605   6.920 +0.02 +0.00    +0.222    14.593
ATOM     33  O   UNL d   1       9.838  10.741   6.080 -0.11 -0.01    -0.303    14.593
ATOM     34  H   UNL d   1      10.689  10.601   6.564 +0.03 +0.01    +0.222    14.593
ATOM     35  O   UNL d   1       7.009  13.527  11.018 -0.11 +0.03    -0.278    14.593
ATOM     36  P   UNL d   1       5.761  13.462  12.008 -0.13 -0.05    +0.473    14.593
ATOM     37  O   UNL d   1       4.729  12.431  11.678 -0.23 +0.05    -0.228    14.593
ATOM     38  O   UNL d   1       6.473  13.249  13.417 -0.10 +0.01    -0.303    14.593
ATOM     39  H   UNL d   1       6.879  12.356  13.439 +0.06 -0.00    +0.222    14.593
ATOM     40  O   UNL d   1       5.279  14.977  12.048 -0.05 +0.03    -0.303    14.593
ATOM     41  H   UNL d   1       5.397  15.420  11.178 +0.06 -0.02    +0.222    14.593
ATOM     42  O   UNL d   1       6.392  13.345   8.176 -0.27 +0.08    -0.278    14.593
ATOM     43  P   UNL d   1       5.709  14.753   8.484 -0.19 -0.08    +0.473    14.593
ATOM     44  O   UNL d   1       5.248  15.562   7.321 -0.25 +0.03    -0.228    14.593
ATOM     45  O   UNL d   1       4.552  14.363   9.504 -0.18 +0.08    -0.303    14.593
ATOM     46  H   UNL d   1       4.851  13.685  10.142 -0.36 -0.10    +0.222    14.593
ATOM     47  O   UNL d   1       6.767  15.471   9.450 -0.06 +0.02    -0.303    14.593
ATOM     48  H   UNL d   1       6.701  15.082  10.346 +0.05 -0.02    +0.222    14.593
TER
ENDMDL
MODEL       35
USER    Run = 35
USER    Cluster Rank = 61
USER    Number of conformations in this cluster = 1
USER  
USER    RMSD from reference structure       = 19.902 A
USER  
USER    Estimated Free Energy of Binding    =   +3.36 kcal/mol  [=(1)+(2)+(3)-(4)]
USER    
USER    (1) Final Intermolecular Energy     =   -3.80 kcal/mol
USER        vdW + Hbond + desolv Energy     =   -3.77 kcal/mol
USER        Electrostatic Energy            =   -0.03 kcal/mol
USER    (2) Final Total Internal Energy     =  -13.07 kcal/mol
USER    (3) Torsional Free Energy           =   +7.16 kcal/mol
USER    (4) Unbound System's Energy  [=(2)] =  -13.07 kcal/mol
USER    
USER    
USER  
USER    DPF = D:/Protein_go_brrr/autodock/final/mut_D99N/IHP/dock.dpf
USER    NEWDPF move	IHP_ideal_opt.pdbqt
USER    NEWDPF about	0.035000 0.082000 -0.065000
USER    NEWDPF tran0	0.980630 17.066783 14.675013
USER    NEWDPF axisangle0	-0.841044 0.429991 -0.328257 -136.570326
USER    NEWDPF quaternion0	-0.781361 0.399478 -0.304963 -0.369987
USER    NEWDPF dihe0	-147.54 -55.37 136.84 -1.43 -3.23 -167.31 -23.21 -122.75 48.37 104.72 -159.22 -117.72 87.00 -176.63 -52.73 122.83 -78.99 -13.63 -43.42 7.84 22.71 -2.89 -180.00 164.96 
USER  
USER                              x       y       z    vdW   Elec        q     RMS 
ATOM      1  C   UNL d   1       2.565  16.628  15.204 -0.07 -0.03    +0.194    19.902
ATOM      2  C   UNL d   1       1.983  17.892  15.838 -0.03 -0.02    +0.194    19.902
ATOM      3  C   UNL d   1       1.285  18.776  14.803 -0.01 -0.01    +0.194    19.902
ATOM      4  C   UNL d   1       0.254  18.022  13.967 -0.03 -0.02    +0.194    19.902
ATOM      5  C   UNL d   1       0.756  16.697  13.408 -0.08 -0.02    +0.194    19.902
ATOM      6  C   UNL d   1       1.508  15.840  14.429 -0.11 -0.04    +0.194    19.902
ATOM      7  O   UNL d   1       3.043  15.782  16.253 -0.10 +0.06    -0.278    19.902
ATOM      8  P   UNL d   1       3.998  14.561  15.868 -0.14 -0.06    +0.473    19.902
ATOM      9  O   UNL d   1       5.145  14.342  16.791 -0.13 +0.01    -0.228    19.902
ATOM     10  O   UNL d   1       3.012  13.310  15.784 -0.17 +0.06    -0.303    19.902
ATOM     11  H   UNL d   1       2.285  13.508  15.164 -0.20 -0.08    +0.222    19.902
ATOM     12  O   UNL d   1       4.372  14.794  14.342 -0.07 +0.03    -0.303    19.902
ATOM     13  H   UNL d   1       3.845  14.236  13.726 +0.09 -0.02    +0.222    19.902
ATOM     14  O   UNL d   1       1.027  17.516  16.837 -0.05 +0.04    -0.278    19.902
ATOM     15  P   UNL d   1       1.036  18.366  18.194 -0.01 -0.05    +0.473    19.902
ATOM     16  O   UNL d   1       1.280  17.608  19.461 -0.03 +0.03    -0.228    19.902
ATOM     17  O   UNL d   1       2.126  19.499  17.934 -0.00 +0.02    -0.303    19.902
ATOM     18  H   UNL d   1       2.054  19.854  17.027 +0.01 -0.01    +0.222    19.902
ATOM     19  O   UNL d   1      -0.315  19.205  18.146 -0.01 +0.02    -0.303    19.902
ATOM     20  H   UNL d   1      -0.340  19.804  17.377 +0.01 -0.02    +0.222    19.902
ATOM     21  O   UNL d   1       2.195  14.830  13.693 -0.12 +0.05    -0.278    19.902
ATOM     22  P   UNL d   1       1.401  13.544  13.184 -0.25 -0.08    +0.473    19.902
ATOM     23  O   UNL d   1       0.143  13.167  13.890 -0.80 +0.09    -0.228    19.902
ATOM     24  O   UNL d   1       1.228  13.860  11.634 -0.25 +0.03    -0.303    19.902
ATOM     25  H   UNL d   1       0.592  14.614  11.543 +0.11 -0.02    +0.222    19.902
ATOM     26  O   UNL d   1       2.558  12.433  13.169 -0.33 +0.04    -0.303    19.902
ATOM     27  H   UNL d   1       3.302  12.735  13.728 +0.12 -0.02    +0.222    19.902
ATOM     28  O   UNL d   1       0.548  19.765  15.510 -0.00 +0.02    -0.278    19.902
ATOM     29  P   UNL d   1       1.039  21.279  15.523 +0.00 -0.02    +0.473    19.902
ATOM     30  O   UNL d   1       0.391  22.172  14.528 +0.00 +0.01    -0.228    19.902
ATOM     31  O   UNL d   1       0.818  21.632  17.068 -0.00 +0.01    -0.303    19.902
ATOM     32  H   UNL d   1       0.911  20.805  17.595 +0.00 -0.01    +0.222    19.902
ATOM     33  O   UNL d   1       2.620  21.118  15.422 -0.00 +0.01    -0.303    19.902
ATOM     34  H   UNL d   1       2.947  20.649  16.228 +0.00 -0.01    +0.222    19.902
ATOM     35  O   UNL d   1      -0.411  15.970  13.029 -0.11 +0.04    -0.278    19.902
ATOM     36  P   UNL d   1      -1.631  15.820  14.045 -0.14 -0.09    +0.473    19.902
ATOM     37  O   UNL d   1      -1.258  15.710  15.489 -0.17 +0.04    -0.228    19.902
ATOM     38  O   UNL d   1      -2.510  17.100  13.690 -0.03 +0.04    -0.303    19.902
ATOM     39  H   UNL d   1      -1.940  17.769  13.252 +0.04 -0.02    +0.222    19.902
ATOM     40  O   UNL d   1      -2.449  14.609  13.417 -0.16 +0.14    -0.303    19.902
ATOM     41  H   UNL d   1      -1.924  13.778  13.413 -0.48 -0.15    +0.222    19.902
ATOM     42  O   UNL d   1      -0.063  18.857  12.848 -0.01 +0.02    -0.278    19.902
ATOM     43  P   UNL d   1       1.123  19.398  11.928 -0.01 -0.01    +0.473    19.902
ATOM     44  O   UNL d   1       2.319  18.526  11.768 -0.03 +0.01    -0.228    19.902
ATOM     45  O   UNL d   1       0.379  19.740  10.564 -0.02 +0.00    -0.303    19.902
ATOM     46  H   UNL d   1       0.571  20.653  10.270 +0.01 -0.00    +0.222    19.902
ATOM     47  O   UNL d   1       1.407  20.860  12.520 -0.00 +0.01    -0.303    19.902
ATOM     48  H   UNL d   1       1.685  20.781  13.456 +0.00 -0.01    +0.222    19.902
TER
ENDMDL
MODEL       44
USER    Run = 44
USER    Cluster Rank = 62
USER    Number of conformations in this cluster = 1
USER  
USER    RMSD from reference structure       = 15.525 A
USER  
USER    Estimated Free Energy of Binding    =   +3.39 kcal/mol  [=(1)+(2)+(3)-(4)]
USER    
USER    (1) Final Intermolecular Energy     =   -3.77 kcal/mol
USER        vdW + Hbond + desolv Energy     =   -3.71 kcal/mol
USER        Electrostatic Energy            =   -0.07 kcal/mol
USER    (2) Final Total Internal Energy     =  -12.72 kcal/mol
USER    (3) Torsional Free Energy           =   +7.16 kcal/mol
USER    (4) Unbound System's Energy  [=(2)] =  -12.72 kcal/mol
USER    
USER    
USER  
USER    DPF = D:/Protein_go_brrr/autodock/final/mut_D99N/IHP/dock.dpf
USER    NEWDPF move	IHP_ideal_opt.pdbqt
USER    NEWDPF about	0.035000 0.082000 -0.065000
USER    NEWDPF tran0	18.501193 -2.304910 6.920315
USER    NEWDPF axisangle0	-0.364803 0.908923 -0.201936 -92.691827
USER    NEWDPF quaternion0	-0.263943 0.657624 -0.146105 -0.690303
USER    NEWDPF dihe0	105.67 51.05 158.01 -7.90 -155.65 -140.27 -143.33 25.13 107.79 125.63 -83.82 -87.25 -25.71 83.60 87.97 17.65 46.17 3.98 25.34 -39.99 2.74 173.97 177.72 -26.77 
USER  
USER                              x       y       z    vdW   Elec        q     RMS 
ATOM      1  C   UNL d   1      19.525  -3.583   6.370 -0.07 +0.01    +0.194    15.525
ATOM      2  C   UNL d   1      19.163  -3.619   7.856 -0.03 +0.00    +0.194    15.525
ATOM      3  C   UNL d   1      19.244  -2.230   8.493 -0.01 +0.00    +0.194    15.525
ATOM      4  C   UNL d   1      18.450  -1.172   7.731 -0.03 +0.00    +0.194    15.525
ATOM      5  C   UNL d   1      18.694  -1.176   6.227 -0.03 +0.00    +0.194    15.525
ATOM      6  C   UNL d   1      18.674  -2.572   5.601 -0.09 +0.00    +0.194    15.525
ATOM      7  O   UNL d   1      19.260  -4.873   5.815 -0.12 -0.04    -0.278    15.525
ATOM      8  P   UNL d   1      20.474  -5.901   5.669 -0.14 +0.14    +0.473    15.525
ATOM      9  O   UNL d   1      21.595  -5.693   6.627 -0.09 -0.07    -0.228    15.525
ATOM     10  O   UNL d   1      19.787  -7.334   5.808 -0.48 -0.13    -0.303    15.525
ATOM     11  H   UNL d   1      19.247  -7.360   6.620 +0.07 +0.05    +0.222    15.525
ATOM     12  O   UNL d   1      20.862  -5.866   4.129 -0.11 -0.10    -0.303    15.525
ATOM     13  H   UNL d   1      20.367  -5.184   3.622 +0.06 +0.04    +0.222    15.525
ATOM     14  O   UNL d   1      17.825  -4.110   7.999 -0.08 +0.02    -0.278    15.525
ATOM     15  P   UNL d   1      17.659  -5.690   8.199 -0.07 -0.04    +0.473    15.525
ATOM     16  O   UNL d   1      16.640  -6.137   9.200 -0.10 +0.04    -0.228    15.525
ATOM     17  O   UNL d   1      17.364  -6.237   6.732 -0.10 +0.01    -0.303    15.525
ATOM     18  H   UNL d   1      18.116  -6.061   6.133 +0.12 +0.04    +0.222    15.525
ATOM     19  O   UNL d   1      19.140  -6.216   8.445 -0.02 -0.02    -0.303    15.525
ATOM     20  H   UNL d   1      19.691  -6.127   7.646 +0.05 +0.03    +0.222    15.525
ATOM     21  O   UNL d   1      19.246  -2.448   4.300 -0.06 -0.00    -0.278    15.525
ATOM     22  P   UNL d   1      18.295  -2.355   3.023 -0.11 -0.03    +0.473    15.525
ATOM     23  O   UNL d   1      18.350  -1.118   2.192 -0.06 +0.01    -0.228    15.525
ATOM     24  O   UNL d   1      18.658  -3.696   2.248 -0.17 +0.03    -0.303    15.525
ATOM     25  H   UNL d   1      17.817  -4.094   1.908 -0.21 -0.07    +0.222    15.525
ATOM     26  O   UNL d   1      16.866  -2.714   3.654 -0.16 +0.07    -0.303    15.525
ATOM     27  H   UNL d   1      16.747  -2.214   4.487 +0.03 -0.04    +0.222    15.525
ATOM     28  O   UNL d   1      18.633  -2.310   9.774 -0.01 +0.00    -0.278    15.525
ATOM     29  P   UNL d   1      17.047  -2.376   9.907 -0.06 -0.02    +0.473    15.525
ATOM     30  O   UNL d   1      16.290  -2.154   8.649 -0.32 -0.01    -0.228    15.525
ATOM     31  O   UNL d   1      16.885  -3.804  10.610 -0.06 +0.03    -0.303    15.525
ATOM     32  H   UNL d   1      16.773  -4.488   9.910 +0.05 -0.03    +0.222    15.525
ATOM     33  O   UNL d   1      16.770  -1.362  11.102 -0.06 +0.01    -0.303    15.525
ATOM     34  H   UNL d   1      16.726  -0.443  10.740 +0.02 +0.00    +0.222    15.525
ATOM     35  O   UNL d   1      17.610  -0.445   5.657 -0.05 -0.00    -0.278    15.525
ATOM     36  P   UNL d   1      16.104  -0.820   6.025 -0.14 +0.01    +0.473    15.525
ATOM     37  O   UNL d   1      15.529  -0.099   7.203 -0.65 -0.04    -0.228    15.525
ATOM     38  O   UNL d   1      15.352  -0.535   4.651 -0.24 +0.01    -0.303    15.525
ATOM     39  H   UNL d   1      15.929  -0.808   3.906 +0.09 -0.01    +0.222    15.525
ATOM     40  O   UNL d   1      16.160  -2.408   6.108 -0.26 +0.04    -0.303    15.525
ATOM     41  H   UNL d   1      16.469  -2.716   6.989 +0.05 -0.02    +0.222    15.525
ATOM     42  O   UNL d   1      18.878   0.102   8.223 -0.01 -0.01    -0.278    15.525
ATOM     43  P   UNL d   1      17.784   1.231   8.497 +0.00 +0.02    +0.473    15.525
ATOM     44  O   UNL d   1      16.593   0.850   9.306 -0.08 -0.01    -0.228    15.525
ATOM     45  O   UNL d   1      18.648   2.410   9.125 +0.00 -0.01    -0.303    15.525
ATOM     46  H   UNL d   1      18.096   3.009   9.666 +0.01 +0.01    +0.222    15.525
ATOM     47  O   UNL d   1      17.471   1.800   7.032 -0.01 -0.01    -0.303    15.525
ATOM     48  H   UNL d   1      16.718   1.306   6.647 +0.04 +0.01    +0.222    15.525
TER
ENDMDL
MODEL        1
USER    Run = 1
USER    Cluster Rank = 63
USER    Number of conformations in this cluster = 1
USER  
USER    RMSD from reference structure       = 11.446 A
USER  
USER    Estimated Free Energy of Binding    =   +3.42 kcal/mol  [=(1)+(2)+(3)-(4)]
USER    
USER    (1) Final Intermolecular Energy     =   -3.74 kcal/mol
USER        vdW + Hbond + desolv Energy     =   -3.67 kcal/mol
USER        Electrostatic Energy            =   -0.07 kcal/mol
USER    (2) Final Total Internal Energy     =  -13.39 kcal/mol
USER    (3) Torsional Free Energy           =   +7.16 kcal/mol
USER    (4) Unbound System's Energy  [=(2)] =  -13.39 kcal/mol
USER    
USER    
USER  
USER    DPF = D:/Protein_go_brrr/autodock/final/mut_D99N/IHP/dock.dpf
USER    NEWDPF move	IHP_ideal_opt.pdbqt
USER    NEWDPF about	0.035000 0.082000 -0.065000
USER    NEWDPF tran0	14.164982 4.874481 -1.931203
USER    NEWDPF axisangle0	-0.976298 0.188062 -0.107121 90.443983
USER    NEWDPF quaternion0	-0.693016 0.133494 -0.076039 0.704362
USER    NEWDPF dihe0	55.00 38.92 24.37 25.30 90.95 -137.18 -126.15 -27.22 22.43 -156.81 42.12 137.18 -158.29 -161.73 -92.72 48.57 -66.73 179.90 22.60 -36.26 164.09 -30.19 -166.83 17.12 
USER  
USER                              x       y       z    vdW   Elec        q     RMS 
ATOM      1  C   UNL d   1      15.553   3.964  -2.409 -0.06 +0.02    +0.194    11.446
ATOM      2  C   UNL d   1      14.629   4.406  -3.546 -0.06 +0.02    +0.194    11.446
ATOM      3  C   UNL d   1      13.155   4.213  -3.185 -0.09 +0.01    +0.194    11.446
ATOM      4  C   UNL d   1      12.774   4.849  -1.850 -0.11 +0.00    +0.194    11.446
ATOM      5  C   UNL d   1      13.734   4.527  -0.713 -0.09 +0.00    +0.194    11.446
ATOM      6  C   UNL d   1      15.210   4.661  -1.092 -0.05 +0.01    +0.194    11.446
ATOM      7  O   UNL d   1      16.890   4.334  -2.752 -0.05 -0.01    -0.278    11.446
ATOM      8  P   UNL d   1      17.860   3.213  -3.348 -0.06 -0.00    +0.473    11.446
ATOM      9  O   UNL d   1      18.916   2.732  -2.416 -0.02 +0.00    -0.228    11.446
ATOM     10  O   UNL d   1      16.868   2.057  -3.823 -0.27 +0.03    -0.303    11.446
ATOM     11  H   UNL d   1      16.880   1.328  -3.175 -0.49 -0.07    +0.222    11.446
ATOM     12  O   UNL d   1      18.372   3.802  -4.731 -0.02 -0.00    -0.303    11.446
ATOM     13  H   UNL d   1      17.932   4.647  -4.977 +0.01 +0.00    +0.222    11.446
ATOM     14  O   UNL d   1      14.855   5.795  -3.816 -0.01 -0.01    -0.278    11.446
ATOM     15  P   UNL d   1      15.879   6.137  -4.999 +0.00 +0.02    +0.473    11.446
ATOM     16  O   UNL d   1      17.224   6.653  -4.595 +0.00 -0.01    -0.228    11.446
ATOM     17  O   UNL d   1      15.962   4.788  -5.841 -0.02 -0.01    -0.303    11.446
ATOM     18  H   UNL d   1      16.450   4.097  -5.353 +0.02 +0.01    +0.222    11.446
ATOM     19  O   UNL d   1      15.051   7.076  -5.981 +0.00 -0.01    -0.303    11.446
ATOM     20  H   UNL d   1      14.109   6.826  -6.011 +0.01 +0.01    +0.222    11.446
ATOM     21  O   UNL d   1      15.960   4.010  -0.068 -0.02 -0.00    -0.278    11.446
ATOM     22  P   UNL d   1      15.755   2.450   0.194 -0.06 -0.00    +0.473    11.446
ATOM     23  O   UNL d   1      14.409   1.980   0.634 -0.18 -0.00    -0.228    11.446
ATOM     24  O   UNL d   1      16.266   1.820  -1.176 -0.17 +0.01    -0.303    11.446
ATOM     25  H   UNL d   1      16.901   2.459  -1.590 +0.03 -0.00    +0.222    11.446
ATOM     26  O   UNL d   1      16.972   2.123   1.184 -0.02 +0.00    -0.303    11.446
ATOM     27  H   UNL d   1      16.988   2.786   1.905 +0.03 +0.00    +0.222    11.446
ATOM     28  O   UNL d   1      12.381   4.896  -4.163 -0.08 -0.01    -0.278    11.446
ATOM     29  P   UNL d   1      12.098   4.224  -5.579 -0.11 -0.00    +0.473    11.446
ATOM     30  O   UNL d   1      12.206   2.743  -5.617 -0.57 -0.01    -0.228    11.446
ATOM     31  O   UNL d   1      10.665   4.856  -5.906 -0.14 +0.02    -0.303    11.446
ATOM     32  H   UNL d   1       9.989   4.410  -5.345 -0.17 -0.06    +0.222    11.446
ATOM     33  O   UNL d   1      13.071   5.042  -6.538 -0.04 -0.01    -0.303    11.446
ATOM     34  H   UNL d   1      13.874   5.309  -6.028 +0.03 +0.01    +0.222    11.446
ATOM     35  O   UNL d   1      13.471   5.494   0.301 -0.05 -0.00    -0.278    11.446
ATOM     36  P   UNL d   1      13.094   6.993  -0.095 -0.01 +0.01    +0.473    11.446
ATOM     37  O   UNL d   1      13.532   7.430  -1.457 -0.01 -0.01    -0.228    11.446
ATOM     38  O   UNL d   1      11.516   6.999   0.118 -0.05 -0.00    -0.303    11.446
ATOM     39  H   UNL d   1      11.131   6.206  -0.314 -0.01 -0.00    +0.222    11.446
ATOM     40  O   UNL d   1      13.650   7.822   1.143 -0.01 -0.01    -0.303    11.446
ATOM     41  H   UNL d   1      13.756   8.775   0.925 +0.01 +0.01    +0.222    11.446
ATOM     42  O   UNL d   1      11.496   4.315  -1.487 -0.11 +0.01    -0.278    11.446
ATOM     43  P   UNL d   1      10.180   5.124  -1.886 -0.15 +0.01    +0.473    11.446
ATOM     44  O   UNL d   1       9.131   5.286  -0.841 -0.12 -0.01    -0.228    11.446
ATOM     45  O   UNL d   1      10.768   6.496  -2.438 -0.09 -0.02    -0.303    11.446
ATOM     46  H   UNL d   1      11.606   6.731  -1.992 +0.05 +0.01    +0.222    11.446
ATOM     47  O   UNL d   1       9.705   4.406  -3.238 -0.34 +0.01    -0.303    11.446
ATOM     48  H   UNL d   1      10.483   4.253  -3.813 +0.06 -0.02    +0.222    11.446
TER
ENDMDL
MODEL        2
USER    Run = 2
USER    Cluster Rank = 64
USER    Number of conformations in this cluster = 1
USER  
USER    RMSD from reference structure       = 15.268 A
USER  
USER    Estimated Free Energy of Binding    =   +3.45 kcal/mol  [=(1)+(2)+(3)-(4)]
USER    
USER    (1) Final Intermolecular Energy     =   -3.71 kcal/mol
USER        vdW + Hbond + desolv Energy     =   -3.40 kcal/mol
USER        Electrostatic Energy            =   -0.31 kcal/mol
USER    (2) Final Total Internal Energy     =  -13.77 kcal/mol
USER    (3) Torsional Free Energy           =   +7.16 kcal/mol
USER    (4) Unbound System's Energy  [=(2)] =  -13.77 kcal/mol
USER    
USER    
USER  
USER    DPF = D:/Protein_go_brrr/autodock/final/mut_D99N/IHP/dock.dpf
USER    NEWDPF move	IHP_ideal_opt.pdbqt
USER    NEWDPF about	0.035000 0.082000 -0.065000
USER    NEWDPF tran0	-3.826676 15.279744 -8.786888
USER    NEWDPF axisangle0	-0.851610 0.260151 -0.455062 -158.053305
USER    NEWDPF quaternion0	-0.836039 0.255394 -0.446742 -0.190352
USER    NEWDPF dihe0	79.52 63.17 154.42 -5.39 -2.77 180.00 47.89 -78.04 -173.71 -20.24 -180.00 141.90 167.70 177.37 25.92 -67.43 151.76 -175.18 43.96 -2.42 170.13 -17.95 -1.99 27.75 
USER  
USER                              x       y       z    vdW   Elec        q     RMS 
ATOM      1  C   UNL d   1      -2.341  15.311  -7.905 -0.15 -0.01    +0.194    15.268
ATOM      2  C   UNL d   1      -3.033  16.663  -8.082 -0.07 +0.00    +0.194    15.268
ATOM      3  C   UNL d   1      -3.568  16.845  -9.504 -0.02 -0.00    +0.194    15.268
ATOM      4  C   UNL d   1      -4.443  15.684  -9.970 -0.04 -0.00    +0.194    15.268
ATOM      5  C   UNL d   1      -3.841  14.309  -9.708 -0.11 -0.01    +0.194    15.268
ATOM      6  C   UNL d   1      -3.251  14.148  -8.306 -0.20 -0.02    +0.194    15.268
ATOM      7  O   UNL d   1      -2.027  15.148  -6.520 -0.54 -0.00    -0.278    15.268
ATOM      8  P   UNL d   1      -0.749  15.909  -5.938 -0.09 -0.02    +0.473    15.268
ATOM      9  O   UNL d   1       0.055  15.132  -4.955 -0.07 +0.03    -0.228    15.268
ATOM     10  O   UNL d   1       0.079  16.325  -7.236 -0.04 +0.04    -0.303    15.268
ATOM     11  H   UNL d   1       0.567  15.552  -7.575 +0.04 -0.05    +0.222    15.268
ATOM     12  O   UNL d   1      -1.299  17.311  -5.430 -0.07 -0.02    -0.303    15.268
ATOM     13  H   UNL d   1      -2.274  17.320  -5.306 +0.03 +0.03    +0.222    15.268
ATOM     14  O   UNL d   1      -4.132  16.749  -7.166 -0.31 -0.04    -0.278    15.268
ATOM     15  P   UNL d   1      -4.203  18.062  -6.253 -0.02 +0.06    +0.473    15.268
ATOM     16  O   UNL d   1      -4.323  17.849  -4.777 -0.06 -0.06    -0.228    15.268
ATOM     17  O   UNL d   1      -2.898  18.884  -6.655 -0.01 -0.02    -0.303    15.268
ATOM     18  H   UNL d   1      -2.893  19.091  -7.609 +0.01 +0.01    +0.222    15.268
ATOM     19  O   UNL d   1      -5.351  18.944  -6.914 -0.01 -0.02    -0.303    15.268
ATOM     20  H   UNL d   1      -5.107  19.239  -7.811 +0.01 +0.01    +0.222    15.268
ATOM     21  O   UNL d   1      -2.442  12.974  -8.331 -0.30 +0.06    -0.278    15.268
ATOM     22  P   UNL d   1      -1.102  12.954  -9.195 -0.13 -0.18    +0.473    15.268
ATOM     23  O   UNL d   1      -0.076  14.003  -8.928 -0.14 +0.09    -0.228    15.268
ATOM     24  O   UNL d   1      -0.599  11.459  -8.982 -0.17 +0.25    -0.303    15.268
ATOM     25  H   UNL d   1      -0.312  11.362  -8.038 -0.44 -0.45    +0.222    15.268
ATOM     26  O   UNL d   1      -1.679  12.899 -10.690 -0.03 +0.04    -0.303    15.268
ATOM     27  H   UNL d   1      -2.653  12.989 -10.662 +0.06 -0.02    +0.222    15.268
ATOM     28  O   UNL d   1      -4.422  17.982  -9.499 -0.00 -0.00    -0.278    15.268
ATOM     29  P   UNL d   1      -3.845  19.422  -9.858 +0.01 +0.00    +0.473    15.268
ATOM     30  O   UNL d   1      -3.400  20.241  -8.702 +0.00 -0.00    -0.228    15.268
ATOM     31  O   UNL d   1      -2.731  19.016 -10.933 +0.00 +0.00    -0.303    15.268
ATOM     32  H   UNL d   1      -3.096  19.166 -11.836 +0.00 -0.00    +0.222    15.268
ATOM     33  O   UNL d   1      -5.004  20.029 -10.766 +0.00 +0.00    -0.303    15.268
ATOM     34  H   UNL d   1      -5.570  19.291 -11.100 +0.00 -0.00    +0.222    15.268
ATOM     35  O   UNL d   1      -4.923  13.386  -9.817 -0.15 +0.01    -0.278    15.268
ATOM     36  P   UNL d   1      -4.796  12.104 -10.757 -0.09 -0.00    +0.473    15.268
ATOM     37  O   UNL d   1      -6.082  11.419 -11.093 -0.27 +0.00    -0.228    15.268
ATOM     38  O   UNL d   1      -4.024  12.699 -12.017 -0.05 +0.01    -0.303    15.268
ATOM     39  H   UNL d   1      -3.148  12.262 -12.093 +0.05 -0.01    +0.222    15.268
ATOM     40  O   UNL d   1      -3.692  11.239 -10.006 -0.11 +0.00    -0.303    15.268
ATOM     41  H   UNL d   1      -2.832  11.713  -9.953 +0.09 -0.02    +0.222    15.268
ATOM     42  O   UNL d   1      -4.588  15.817 -11.388 -0.00 +0.01    -0.278    15.268
ATOM     43  P   UNL d   1      -5.707  16.799 -11.960 +0.01 -0.01    +0.473    15.268
ATOM     44  O   UNL d   1      -6.633  16.258 -12.994 -0.01 +0.01    -0.228    15.268
ATOM     45  O   UNL d   1      -6.433  17.309 -10.639 +0.00 +0.00    -0.303    15.268
ATOM     46  H   UNL d   1      -6.201  18.237 -10.438 +0.01 -0.00    +0.222    15.268
ATOM     47  O   UNL d   1      -4.870  18.096 -12.392 +0.00 +0.01    -0.303    15.268
ATOM     48  H   UNL d   1      -4.171  18.265 -11.727 +0.00 -0.00    +0.222    15.268
TER
ENDMDL
MODEL       49
USER    Run = 49
USER    Cluster Rank = 65
USER    Number of conformations in this cluster = 1
USER  
USER    RMSD from reference structure       = 18.063 A
USER  
USER    Estimated Free Energy of Binding    =   +3.47 kcal/mol  [=(1)+(2)+(3)-(4)]
USER    
USER    (1) Final Intermolecular Energy     =   -3.69 kcal/mol
USER        vdW + Hbond + desolv Energy     =   -3.58 kcal/mol
USER        Electrostatic Energy            =   -0.10 kcal/mol
USER    (2) Final Total Internal Energy     =  -13.50 kcal/mol
USER    (3) Torsional Free Energy           =   +7.16 kcal/mol
USER    (4) Unbound System's Energy  [=(2)] =  -13.50 kcal/mol
USER    
USER    
USER  
USER    DPF = D:/Protein_go_brrr/autodock/final/mut_D99N/IHP/dock.dpf
USER    NEWDPF move	IHP_ideal_opt.pdbqt
USER    NEWDPF about	0.035000 0.082000 -0.065000
USER    NEWDPF tran0	3.702514 0.374222 -19.027049
USER    NEWDPF axisangle0	0.439038 -0.630343 0.640245 -112.090764
USER    NEWDPF quaternion0	0.364174 -0.522857 0.531070 -0.558536
USER    NEWDPF dihe0	-54.04 35.82 167.58 31.48 31.34 -72.14 3.58 174.94 36.32 108.64 44.66 110.84 175.61 -177.57 -91.95 117.03 -62.72 -179.35 42.18 -2.61 -9.79 -20.11 -172.73 11.98 
USER  
USER                              x       y       z    vdW   Elec        q     RMS 
ATOM      1  C   UNL d   1       4.273  -0.272 -17.530 -0.20 +0.06    +0.194    18.063
ATOM      2  C   UNL d   1       5.267  -0.320 -18.692 -0.13 +0.05    +0.194    18.063
ATOM      3  C   UNL d   1       4.597  -0.765 -19.993 -0.12 +0.05    +0.194    18.063
ATOM      4  C   UNL d   1       3.348   0.045 -20.334 -0.07 +0.05    +0.194    18.063
ATOM      5  C   UNL d   1       2.381   0.215 -19.170 -0.10 +0.08    +0.194    18.063
ATOM      6  C   UNL d   1       3.059   0.600 -17.853 -0.11 +0.06    +0.194    18.063
ATOM      7  O   UNL d   1       4.930   0.313 -16.404 -0.11 -0.08    -0.278    18.063
ATOM      8  P   UNL d   1       5.894  -0.609 -15.524 -0.21 +0.16    +0.473    18.063
ATOM      9  O   UNL d   1       5.690  -0.512 -14.053 -0.20 -0.07    -0.228    18.063
ATOM     10  O   UNL d   1       5.651  -2.078 -16.096 -0.67 -0.14    -0.303    18.063
ATOM     11  H   UNL d   1       6.474  -2.598 -16.022 -0.26 +0.06    +0.222    18.063
ATOM     12  O   UNL d   1       7.360  -0.288 -16.043 -0.15 -0.11    -0.303    18.063
ATOM     13  H   UNL d   1       7.369   0.265 -16.857 +0.07 +0.06    +0.222    18.063
ATOM     14  O   UNL d   1       5.819   0.988 -18.887 -0.02 -0.05    -0.278    18.063
ATOM     15  P   UNL d   1       7.416   1.088 -18.953 +0.01 +0.08    +0.473    18.063
ATOM     16  O   UNL d   1       8.076   1.984 -17.952 -0.01 -0.04    -0.228    18.063
ATOM     17  O   UNL d   1       7.904  -0.425 -18.843 -0.05 -0.07    -0.303    18.063
ATOM     18  H   UNL d   1       7.710  -0.917 -19.664 +0.05 +0.04    +0.222    18.063
ATOM     19  O   UNL d   1       7.730   1.415 -20.478 -0.00 -0.04    -0.303    18.063
ATOM     20  H   UNL d   1       7.043   1.060 -21.071 +0.02 +0.03    +0.222    18.063
ATOM     21  O   UNL d   1       2.102   0.386 -16.819 -0.06 -0.12    -0.278    18.063
ATOM     22  P   UNL d   1       1.499   1.632 -16.026 -0.12 +0.28    +0.473    18.063
ATOM     23  O   UNL d   1       2.436   2.489 -15.243 -0.16 -0.09    -0.228    18.063
ATOM     24  O   UNL d   1       0.701   2.392 -17.174 -0.09 -0.19    -0.303    18.063
ATOM     25  H   UNL d   1       1.203   2.285 -18.022 +0.05 +0.12    +0.222    18.063
ATOM     26  O   UNL d   1       0.312   0.947 -15.195 -0.75 -0.30    -0.303    18.063
ATOM     27  H   UNL d   1       0.521   0.991 -14.240 +0.12 +0.18    +0.222    18.063
ATOM     28  O   UNL d   1       5.511  -0.514 -21.053 -0.05 -0.05    -0.278    18.063
ATOM     29  P   UNL d   1       6.549  -1.635 -21.503 -0.08 +0.06    +0.473    18.063
ATOM     30  O   UNL d   1       6.083  -2.543 -22.582 -0.13 -0.02    -0.228    18.063
ATOM     31  O   UNL d   1       7.825  -0.723 -21.821 -0.02 -0.03    -0.303    18.063
ATOM     32  H   UNL d   1       8.032  -0.184 -21.023 +0.03 +0.03    +0.222    18.063
ATOM     33  O   UNL d   1       6.936  -2.309 -20.113 -0.08 -0.06    -0.303    18.063
ATOM     34  H   UNL d   1       7.919  -2.297 -20.013 +0.05 +0.04    +0.222    18.063
ATOM     35  O   UNL d   1       1.524   1.296 -19.533 -0.06 -0.14    -0.278    18.063
ATOM     36  P   UNL d   1       2.125   2.601 -20.225 +0.02 +0.13    +0.473    18.063
ATOM     37  O   UNL d   1       3.600   2.793 -20.069 -0.00 -0.04    -0.228    18.063
ATOM     38  O   UNL d   1       1.644   2.422 -21.732 +0.00 -0.07    -0.303    18.063
ATOM     39  H   UNL d   1       1.635   1.466 -21.955 +0.02 +0.06    +0.222    18.063
ATOM     40  O   UNL d   1       1.184   3.751 -19.657 +0.00 -0.09    -0.303    18.063
ATOM     41  H   UNL d   1       1.306   3.876 -18.689 +0.02 +0.07    +0.222    18.063
ATOM     42  O   UNL d   1       2.653  -0.677 -21.357 -0.05 -0.08    -0.278    18.063
ATOM     43  P   UNL d   1       2.830  -0.224 -22.876 +0.01 +0.08    +0.473    18.063
ATOM     44  O   UNL d   1       1.598  -0.104 -23.705 -0.01 -0.04    -0.228    18.063
ATOM     45  O   UNL d   1       3.659   1.128 -22.743 -0.00 -0.04    -0.303    18.063
ATOM     46  H   UNL d   1       3.478   1.576 -21.893 +0.01 +0.04    +0.222    18.063
ATOM     47  O   UNL d   1       3.943  -1.235 -23.433 -0.01 -0.04    -0.303    18.063
ATOM     48  H   UNL d   1       4.807  -1.019 -23.025 +0.03 +0.03    +0.222    18.063
TER
ENDMDL
MODEL       31
USER    Run = 31
USER    Cluster Rank = 66
USER    Number of conformations in this cluster = 1
USER  
USER    RMSD from reference structure       = 13.151 A
USER  
USER    Estimated Free Energy of Binding    =   +3.52 kcal/mol  [=(1)+(2)+(3)-(4)]
USER    
USER    (1) Final Intermolecular Energy     =   -3.64 kcal/mol
USER        vdW + Hbond + desolv Energy     =   -3.59 kcal/mol
USER        Electrostatic Energy            =   -0.05 kcal/mol
USER    (2) Final Total Internal Energy     =  -14.39 kcal/mol
USER    (3) Torsional Free Energy           =   +7.16 kcal/mol
USER    (4) Unbound System's Energy  [=(2)] =  -14.39 kcal/mol
USER    
USER    
USER  
USER    DPF = D:/Protein_go_brrr/autodock/final/mut_D99N/IHP/dock.dpf
USER    NEWDPF move	IHP_ideal_opt.pdbqt
USER    NEWDPF about	0.035000 0.082000 -0.065000
USER    NEWDPF tran0	6.008515 14.707487 0.016023
USER    NEWDPF axisangle0	0.478087 0.683028 0.552182 -162.737891
USER    NEWDPF quaternion0	0.472673 0.675293 0.545929 -0.150071
USER    NEWDPF dihe0	74.99 142.79 124.95 -4.68 -6.38 -163.08 -63.07 -26.30 96.51 -39.14 -141.36 -164.97 -37.94 75.10 176.40 179.64 175.73 152.85 39.98 -21.46 177.12 -7.44 23.00 -177.43 
USER  
USER                              x       y       z    vdW   Elec        q     RMS 
ATOM      1  C   UNL d   1       5.519  16.222  -0.656 -0.12 +0.01    +0.194    13.151
ATOM      2  C   UNL d   1       5.506  15.035  -1.621 -0.13 +0.01    +0.194    13.151
ATOM      3  C   UNL d   1       6.751  14.160  -1.460 -0.12 +0.02    +0.194    13.151
ATOM      4  C   UNL d   1       7.000  13.728  -0.017 -0.05 +0.03    +0.194    13.151
ATOM      5  C   UNL d   1       6.908  14.862   0.995 -0.17 +0.01    +0.194    13.151
ATOM      6  C   UNL d   1       5.695  15.774   0.796 -0.13 +0.01    +0.194    13.151
ATOM      7  O   UNL d   1       4.256  16.884  -0.747 -0.11 -0.01    -0.278    13.151
ATOM      8  P   UNL d   1       4.032  17.933  -1.931 -0.02 +0.01    +0.473    13.151
ATOM      9  O   UNL d   1       5.050  17.887  -3.015 -0.01 -0.00    -0.228    13.151
ATOM     10  O   UNL d   1       2.553  17.626  -2.445 -0.03 -0.00    -0.303    13.151
ATOM     11  H   UNL d   1       2.573  16.877  -3.070 +0.05 -0.01    +0.222    13.151
ATOM     12  O   UNL d   1       3.848  19.337  -1.210 -0.02 -0.01    -0.303    13.151
ATOM     13  H   UNL d   1       4.675  19.869  -1.186 +0.01 +0.00    +0.222    13.151
ATOM     14  O   UNL d   1       4.348  14.233  -1.361 -0.23 -0.01    -0.278    13.151
ATOM     15  P   UNL d   1       3.199  14.252  -2.476 -0.19 -0.05    +0.473    13.151
ATOM     16  O   UNL d   1       2.682  12.923  -2.930 -0.22 +0.07    -0.228    13.151
ATOM     17  O   UNL d   1       2.062  15.173  -1.846 -0.19 +0.01    -0.303    13.151
ATOM     18  H   UNL d   1       2.444  15.840  -1.243 +0.08 +0.00    +0.222    13.151
ATOM     19  O   UNL d   1       3.774  15.193  -3.622 -0.08 +0.04    -0.303    13.151
ATOM     20  H   UNL d   1       3.890  16.110  -3.312 +0.05 -0.01    +0.222    13.151
ATOM     21  O   UNL d   1       5.930  16.948   1.570 -0.11 -0.01    -0.278    13.151
ATOM     22  P   UNL d   1       6.982  18.034   1.062 -0.02 +0.01    +0.473    13.151
ATOM     23  O   UNL d   1       7.655  18.894   2.078 -0.01 -0.00    -0.228    13.151
ATOM     24  O   UNL d   1       7.967  17.147   0.181 -0.01 -0.01    -0.303    13.151
ATOM     25  H   UNL d   1       8.512  16.591   0.794 +0.02 +0.01    +0.222    13.151
ATOM     26  O   UNL d   1       6.136  18.805  -0.062 -0.01 -0.01    -0.303    13.151
ATOM     27  H   UNL d   1       5.181  18.683   0.114 +0.02 +0.01    +0.222    13.151
ATOM     28  O   UNL d   1       6.525  12.956  -2.182 -0.14 -0.06    -0.278    13.151
ATOM     29  P   UNL d   1       7.213  12.726  -3.600 -0.03 +0.19    +0.473    13.151
ATOM     30  O   UNL d   1       7.433  11.308  -3.983 -0.65 -0.18    -0.228    13.151
ATOM     31  O   UNL d   1       6.232  13.586  -4.528 -0.22 -0.10    -0.303    13.151
ATOM     32  H   UNL d   1       5.433  13.826  -4.003 +0.05 +0.03    +0.222    13.151
ATOM     33  O   UNL d   1       8.503  13.653  -3.499 -0.01 -0.05    -0.303    13.151
ATOM     34  H   UNL d   1       8.817  13.666  -2.562 +0.03 +0.03    +0.222    13.151
ATOM     35  O   UNL d   1       6.756  14.234   2.267 -0.17 -0.01    -0.278    13.151
ATOM     36  P   UNL d   1       7.239  14.977   3.593 -0.17 -0.03    +0.473    13.151
ATOM     37  O   UNL d   1       7.911  14.110   4.610 -0.19 +0.02    -0.228    13.151
ATOM     38  O   UNL d   1       8.165  16.130   3.003 -0.03 +0.00    -0.303    13.151
ATOM     39  H   UNL d   1       7.869  16.345   2.092 +0.04 +0.00    +0.222    13.151
ATOM     40  O   UNL d   1       5.923  15.741   4.054 -0.21 +0.02    -0.303    13.151
ATOM     41  H   UNL d   1       5.793  16.578   3.554 +0.07 -0.00    +0.222    13.151
ATOM     42  O   UNL d   1       8.337  13.220   0.039 -0.23 -0.05    -0.278    13.151
ATOM     43  P   UNL d   1       9.556  14.243  -0.077 -0.02 +0.03    +0.473    13.151
ATOM     44  O   UNL d   1      10.888  13.685  -0.439 -0.01 -0.01    -0.228    13.151
ATOM     45  O   UNL d   1       9.004  15.328  -1.103 -0.01 -0.02    -0.303    13.151
ATOM     46  H   UNL d   1       9.335  16.223  -0.889 +0.01 +0.01    +0.222    13.151
ATOM     47  O   UNL d   1       9.494  15.045   1.309 -0.02 -0.01    -0.303    13.151
ATOM     48  H   UNL d   1       8.906  14.569   1.931 +0.04 +0.01    +0.222    13.151
TER
ENDMDL
MODEL       11
USER    Run = 11
USER    Cluster Rank = 67
USER    Number of conformations in this cluster = 1
USER  
USER    RMSD from reference structure       = 22.087 A
USER  
USER    Estimated Free Energy of Binding    =   +3.54 kcal/mol  [=(1)+(2)+(3)-(4)]
USER    
USER    (1) Final Intermolecular Energy     =   -3.62 kcal/mol
USER        vdW + Hbond + desolv Energy     =   -3.59 kcal/mol
USER        Electrostatic Energy            =   -0.03 kcal/mol
USER    (2) Final Total Internal Energy     =  -15.16 kcal/mol
USER    (3) Torsional Free Energy           =   +7.16 kcal/mol
USER    (4) Unbound System's Energy  [=(2)] =  -15.16 kcal/mol
USER    
USER    
USER  
USER    DPF = D:/Protein_go_brrr/autodock/final/mut_D99N/IHP/dock.dpf
USER    NEWDPF move	IHP_ideal_opt.pdbqt
USER    NEWDPF about	0.035000 0.082000 -0.065000
USER    NEWDPF tran0	8.777817 -17.433526 -16.269589
USER    NEWDPF axisangle0	-0.417312 -0.496755 0.760977 128.277009
USER    NEWDPF quaternion0	-0.375518 -0.447006 0.684766 0.436197
USER    NEWDPF dihe0	-179.88 13.48 -179.87 142.63 115.23 101.79 -28.21 -137.45 39.43 50.91 -180.00 73.00 -107.77 96.57 95.28 147.27 161.17 74.88 29.52 -27.22 -41.26 -45.17 -1.75 -36.63 
USER  
USER                              x       y       z    vdW   Elec        q     RMS 
ATOM      1  C   UNL d   1       7.428 -18.310 -16.898 -0.07 -0.00    +0.194    22.087
ATOM      2  C   UNL d   1       7.145 -17.459 -15.658 -0.13 +0.01    +0.194    22.087
ATOM      3  C   UNL d   1       8.257 -17.590 -14.616 -0.17 -0.01    +0.194    22.087
ATOM      4  C   UNL d   1       9.650 -17.332 -15.187 -0.12 -0.03    +0.194    22.087
ATOM      5  C   UNL d   1       9.934 -18.072 -16.487 -0.10 -0.03    +0.194    22.087
ATOM      6  C   UNL d   1       8.795 -17.993 -17.506 -0.07 -0.01    +0.194    22.087
ATOM      7  O   UNL d   1       6.441 -18.001 -17.885 -0.05 -0.00    -0.278    22.087
ATOM      8  P   UNL d   1       5.123 -18.902 -17.948 -0.00 +0.01    +0.473    22.087
ATOM      9  O   UNL d   1       5.363 -20.361 -18.120 -0.00 -0.00    -0.228    22.087
ATOM     10  O   UNL d   1       4.349 -18.549 -16.598 -0.01 -0.02    -0.303    22.087
ATOM     11  H   UNL d   1       4.642 -17.678 -16.272 +0.03 +0.03    +0.222    22.087
ATOM     12  O   UNL d   1       4.205 -18.215 -19.048 -0.00 -0.01    -0.303    22.087
ATOM     13  H   UNL d   1       4.320 -17.239 -19.091 +0.02 +0.01    +0.222    22.087
ATOM     14  O   UNL d   1       7.043 -16.084 -16.048 -0.10 -0.03    -0.278    22.087
ATOM     15  P   UNL d   1       5.568 -15.464 -16.108 -0.16 +0.11    +0.473    22.087
ATOM     16  O   UNL d   1       5.448 -13.991 -15.871 -0.23 -0.08    -0.228    22.087
ATOM     17  O   UNL d   1       5.020 -15.906 -17.537 -0.07 -0.04    -0.303    22.087
ATOM     18  H   UNL d   1       4.642 -16.805 -17.506 +0.04 +0.03    +0.222    22.087
ATOM     19  O   UNL d   1       4.710 -16.388 -15.138 -0.10 -0.09    -0.303    22.087
ATOM     20  H   UNL d   1       4.805 -16.118 -14.206 +0.07 +0.08    +0.222    22.087
ATOM     21  O   UNL d   1       9.055 -18.989 -18.493 -0.04 +0.02    -0.278    22.087
ATOM     22  P   UNL d   1       8.700 -18.701 -20.021 -0.03 -0.03    +0.473    22.087
ATOM     23  O   UNL d   1       9.781 -18.862 -21.037 -0.02 +0.02    -0.228    22.087
ATOM     24  O   UNL d   1       7.432 -19.636 -20.243 -0.01 +0.01    -0.303    22.087
ATOM     25  H   UNL d   1       6.795 -19.473 -19.501 +0.01 -0.00    +0.222    22.087
ATOM     26  O   UNL d   1       8.029 -17.248 -19.932 -0.07 +0.02    -0.303    22.087
ATOM     27  H   UNL d   1       7.144 -17.327 -19.522 +0.02 -0.00    +0.222    22.087
ATOM     28  O   UNL d   1       8.054 -16.573 -13.643 -0.25 +0.02    -0.278    22.087
ATOM     29  P   UNL d   1       6.763 -16.597 -12.711 -0.21 +0.03    +0.473    22.087
ATOM     30  O   UNL d   1       7.027 -16.648 -11.251 -0.24 -0.02    -0.228    22.087
ATOM     31  O   UNL d   1       5.994 -15.307 -13.266 -0.26 -0.07    -0.303    22.087
ATOM     32  H   UNL d   1       6.300 -15.130 -14.185 +0.07 +0.04    +0.222    22.087
ATOM     33  O   UNL d   1       5.925 -17.800 -13.333 -0.05 -0.03    -0.303    22.087
ATOM     34  H   UNL d   1       5.472 -17.485 -14.154 +0.06 +0.03    +0.222    22.087
ATOM     35  O   UNL d   1      11.061 -17.418 -17.066 -0.15 +0.11    -0.278    22.087
ATOM     36  P   UNL d   1      12.328 -18.265 -17.537 -0.06 -0.19    +0.473    22.087
ATOM     37  O   UNL d   1      13.627 -17.523 -17.562 -0.10 +0.17    -0.228    22.087
ATOM     38  O   UNL d   1      12.295 -19.493 -16.523 -0.01 +0.06    -0.303    22.087
ATOM     39  H   UNL d   1      11.910 -19.195 -15.671 +0.04 -0.04    +0.222    22.087
ATOM     40  O   UNL d   1      11.828 -18.890 -18.911 -0.02 +0.07    -0.303    22.087
ATOM     41  H   UNL d   1      10.970 -18.503 -19.196 +0.03 -0.05    +0.222    22.087
ATOM     42  O   UNL d   1      10.590 -17.808 -14.217 -0.15 +0.03    -0.278    22.087
ATOM     43  P   UNL d   1      11.994 -17.066 -14.076 -0.21 -0.10    +0.473    22.087
ATOM     44  O   UNL d   1      12.329 -16.476 -12.750 -0.29 +0.01    -0.228    22.087
ATOM     45  O   UNL d   1      13.025 -18.171 -14.575 -0.06 +0.07    -0.303    22.087
ATOM     46  H   UNL d   1      13.382 -17.953 -15.460 +0.05 -0.08    +0.222    22.087
ATOM     47  O   UNL d   1      11.993 -16.041 -15.309 -0.25 +0.22    -0.303    22.087
ATOM     48  H   UNL d   1      12.626 -16.352 -15.988 -0.17 -0.26    +0.222    22.087
TER
ENDMDL
MODEL       34
USER    Run = 34
USER    Cluster Rank = 68
USER    Number of conformations in this cluster = 1
USER  
USER    RMSD from reference structure       = 11.756 A
USER  
USER    Estimated Free Energy of Binding    =   +3.67 kcal/mol  [=(1)+(2)+(3)-(4)]
USER    
USER    (1) Final Intermolecular Energy     =   -3.49 kcal/mol
USER        vdW + Hbond + desolv Energy     =   -3.00 kcal/mol
USER        Electrostatic Energy            =   -0.49 kcal/mol
USER    (2) Final Total Internal Energy     =  -13.84 kcal/mol
USER    (3) Torsional Free Energy           =   +7.16 kcal/mol
USER    (4) Unbound System's Energy  [=(2)] =  -13.84 kcal/mol
USER    
USER    
USER  
USER    DPF = D:/Protein_go_brrr/autodock/final/mut_D99N/IHP/dock.dpf
USER    NEWDPF move	IHP_ideal_opt.pdbqt
USER    NEWDPF about	0.035000 0.082000 -0.065000
USER    NEWDPF tran0	-10.452523 -11.018786 2.298013
USER    NEWDPF axisangle0	-0.143892 0.950610 -0.275019 -102.343708
USER    NEWDPF quaternion0	-0.112096 0.740554 -0.214248 -0.626987
USER    NEWDPF dihe0	-96.83 22.63 40.02 -0.33 30.23 -125.74 -18.69 -89.51 163.19 -26.69 40.24 40.52 180.00 162.85 1.83 69.85 180.00 -79.70 60.56 7.85 -43.73 -2.43 21.13 -168.64 
USER  
USER                              x       y       z    vdW   Elec        q     RMS 
ATOM      1  C   UNL d   1     -10.007 -12.487   1.505 -0.00 -0.04    +0.194    11.756
ATOM      2  C   UNL d   1     -10.215 -12.590   3.017 +0.00 -0.01    +0.194    11.756
ATOM      3  C   UNL d   1      -9.585 -11.407   3.756 -0.01 -0.00    +0.194    11.756
ATOM      4  C   UNL d   1     -10.020 -10.052   3.204 -0.03 -0.00    +0.194    11.756
ATOM      5  C   UNL d   1      -9.938  -9.945   1.687 -0.05 -0.04    +0.194    11.756
ATOM      6  C   UNL d   1     -10.513 -11.155   0.949 -0.02 -0.05    +0.194    11.756
ATOM      7  O   UNL d   1     -10.766 -13.525   0.879 -0.00 +0.05    -0.278    11.756
ATOM      8  P   UNL d   1     -10.402 -15.043   1.222 +0.01 -0.05    +0.473    11.756
ATOM      9  O   UNL d   1     -10.180 -15.920   0.040 +0.00 +0.03    -0.228    11.756
ATOM     10  O   UNL d   1      -9.124 -14.930   2.170 +0.00 +0.03    -0.303    11.756
ATOM     11  H   UNL d   1      -9.383 -15.115   3.091 +0.00 -0.01    +0.222    11.756
ATOM     12  O   UNL d   1     -11.528 -15.518   2.237 +0.00 +0.01    -0.303    11.756
ATOM     13  H   UNL d   1     -11.963 -14.772   2.708 +0.00 -0.01    +0.222    11.756
ATOM     14  O   UNL d   1     -11.621 -12.606   3.295 +0.00 +0.01    -0.278    11.756
ATOM     15  P   UNL d   1     -12.113 -13.616   4.436 +0.00 +0.01    +0.473    11.756
ATOM     16  O   UNL d   1     -13.415 -14.315   4.199 +0.00 -0.00    -0.228    11.756
ATOM     17  O   UNL d   1     -10.893 -14.625   4.613 +0.00 -0.00    -0.303    11.756
ATOM     18  H   UNL d   1     -10.659 -15.046   3.763 +0.00 -0.00    +0.222    11.756
ATOM     19  O   UNL d   1     -12.024 -12.770   5.780 +0.00 -0.02    -0.303    11.756
ATOM     20  H   UNL d   1     -11.115 -12.464   5.955 +0.01 +0.02    +0.222    11.756
ATOM     21  O   UNL d   1     -10.061 -11.067  -0.401 -0.08 +0.19    -0.278    11.756
ATOM     22  P   UNL d   1     -11.000 -11.580  -1.585 -0.04 -0.29    +0.473    11.756
ATOM     23  O   UNL d   1     -12.477 -11.455  -1.418 -0.01 +0.06    -0.228    11.756
ATOM     24  O   UNL d   1     -10.401 -10.799  -2.836 -0.02 +0.42    -0.303    11.756
ATOM     25  H   UNL d   1     -10.114  -9.901  -2.530 -0.41 -0.49    +0.222    11.756
ATOM     26  O   UNL d   1     -10.442 -13.064  -1.823 -0.04 +0.16    -0.303    11.756
ATOM     27  H   UNL d   1     -10.544 -13.582  -0.999 +0.01 -0.08    +0.222    11.756
ATOM     28  O   UNL d   1     -10.059 -11.439   5.097 -0.01 -0.02    -0.278    11.756
ATOM     29  P   UNL d   1      -9.085 -11.858   6.285 -0.02 +0.09    +0.473    11.756
ATOM     30  O   UNL d   1      -7.725 -11.262   6.239 -0.09 -0.07    -0.228    11.756
ATOM     31  O   UNL d   1     -10.001 -11.481   7.542 -0.02 -0.07    -0.303    11.756
ATOM     32  H   UNL d   1     -10.944 -11.634   7.301 +0.01 +0.03    +0.222    11.756
ATOM     33  O   UNL d   1      -9.176 -13.447   6.247 -0.00 -0.04    -0.303    11.756
ATOM     34  H   UNL d   1     -10.072 -13.710   5.922 +0.01 +0.02    +0.222    11.756
ATOM     35  O   UNL d   1     -10.740  -8.819   1.335 -0.04 +0.03    -0.278    11.756
ATOM     36  P   UNL d   1     -10.411  -7.976   0.021 -0.08 -0.15    +0.473    11.756
ATOM     37  O   UNL d   1     -10.454  -6.490   0.181 -0.15 +0.00    -0.228    11.756
ATOM     38  O   UNL d   1      -8.982  -8.550  -0.385 -0.21 +0.29    -0.303    11.756
ATOM     39  H   UNL d   1      -9.100  -9.284  -1.025 -0.47 -0.42    +0.222    11.756
ATOM     40  O   UNL d   1     -11.398  -8.616  -1.049 -0.05 +0.13    -0.303    11.756
ATOM     41  H   UNL d   1     -11.145  -9.540  -1.272 +0.01 -0.14    +0.222    11.756
ATOM     42  O   UNL d   1      -9.122  -9.077   3.745 -0.09 -0.02    -0.278    11.756
ATOM     43  P   UNL d   1      -7.687  -8.894   3.072 -0.12 -0.00    +0.473    11.756
ATOM     44  O   UNL d   1      -7.031 -10.108   2.511 -0.13 +0.02    -0.228    11.756
ATOM     45  O   UNL d   1      -7.946  -7.742   2.005 -0.28 +0.03    -0.303    11.756
ATOM     46  H   UNL d   1      -8.853  -7.788   1.642 +0.09 -0.03    +0.222    11.756
ATOM     47  O   UNL d   1      -6.852  -8.114   4.197 -0.37 +0.00    -0.303    11.756
ATOM     48  H   UNL d   1      -6.285  -7.440   3.768 -0.31 -0.04    +0.222    11.756
TER
ENDMDL
MODEL       40
USER    Run = 40
USER    Cluster Rank = 69
USER    Number of conformations in this cluster = 1
USER  
USER    RMSD from reference structure       = 15.745 A
USER  
USER    Estimated Free Energy of Binding    =   +3.67 kcal/mol  [=(1)+(2)+(3)-(4)]
USER    
USER    (1) Final Intermolecular Energy     =   -3.49 kcal/mol
USER        vdW + Hbond + desolv Energy     =   -3.50 kcal/mol
USER        Electrostatic Energy            =   +0.02 kcal/mol
USER    (2) Final Total Internal Energy     =  -11.97 kcal/mol
USER    (3) Torsional Free Energy           =   +7.16 kcal/mol
USER    (4) Unbound System's Energy  [=(2)] =  -11.97 kcal/mol
USER    
USER    
USER  
USER    DPF = D:/Protein_go_brrr/autodock/final/mut_D99N/IHP/dock.dpf
USER    NEWDPF move	IHP_ideal_opt.pdbqt
USER    NEWDPF about	0.035000 0.082000 -0.065000
USER    NEWDPF tran0	17.812984 1.218059 -5.881056
USER    NEWDPF axisangle0	0.837812 -0.545803 -0.013032 89.539302
USER    NEWDPF quaternion0	0.590036 -0.384386 -0.009178 0.709944
USER    NEWDPF dihe0	-93.46 24.18 90.44 110.28 26.94 -20.52 13.23 -91.87 -50.39 66.09 112.37 -45.36 58.07 110.06 -51.01 97.95 -8.30 51.52 26.97 -5.41 -179.28 -0.99 143.85 -176.47 
USER  
USER                              x       y       z    vdW   Elec        q     RMS 
ATOM      1  C   UNL d   1      19.533   1.065  -5.834 -0.11 +0.00    +0.194    15.745
ATOM      2  C   UNL d   1      18.832   1.059  -4.475 -0.14 -0.01    +0.194    15.745
ATOM      3  C   UNL d   1      17.737   2.125  -4.397 -0.11 -0.01    +0.194    15.745
ATOM      4  C   UNL d   1      16.747   2.057  -5.558 -0.05 -0.01    +0.194    15.745
ATOM      5  C   UNL d   1      17.404   1.945  -6.928 -0.11 -0.00    +0.194    15.745
ATOM      6  C   UNL d   1      18.540   0.922  -6.989 -0.15 +0.01    +0.194    15.745
ATOM      7  O   UNL d   1      20.413  -0.061  -5.887 -0.08 -0.02    -0.278    15.745
ATOM      8  P   UNL d   1      21.949   0.157  -5.507 -0.04 +0.03    +0.473    15.745
ATOM      9  O   UNL d   1      22.374  -0.460  -4.221 -0.07 -0.01    -0.228    15.745
ATOM     10  O   UNL d   1      22.744  -0.409  -6.768 -0.06 -0.02    -0.303    15.745
ATOM     11  H   UNL d   1      23.141   0.331  -7.264 +0.02 +0.01    +0.222    15.745
ATOM     12  O   UNL d   1      22.188   1.722  -5.638 -0.01 -0.01    -0.303    15.745
ATOM     13  H   UNL d   1      21.522   2.168  -6.208 +0.02 +0.01    +0.222    15.745
ATOM     14  O   UNL d   1      18.233  -0.226  -4.264 -0.22 +0.05    -0.278    15.745
ATOM     15  P   UNL d   1      18.620  -0.982  -2.906 -0.18 -0.07    +0.473    15.745
ATOM     16  O   UNL d   1      17.764  -2.146  -2.517 -0.39 +0.07    -0.228    15.745
ATOM     17  O   UNL d   1      20.150  -1.380  -3.106 -0.14 -0.00    -0.303    15.745
ATOM     18  H   UNL d   1      20.456  -1.157  -4.006 +0.05 +0.01    +0.222    15.745
ATOM     19  O   UNL d   1      18.731   0.179  -1.824 -0.07 +0.03    -0.303    15.745
ATOM     20  H   UNL d   1      17.944   0.755  -1.831 +0.03 -0.03    +0.222    15.745
ATOM     21  O   UNL d   1      19.260   1.177  -8.193 -0.06 -0.01    -0.278    15.745
ATOM     22  P   UNL d   1      20.295   2.388  -8.256 -0.01 +0.01    +0.473    15.745
ATOM     23  O   UNL d   1      20.153   3.490  -7.260 -0.01 -0.01    -0.228    15.745
ATOM     24  O   UNL d   1      21.692   1.626  -8.212 -0.02 -0.01    -0.303    15.745
ATOM     25  H   UNL d   1      21.610   0.870  -7.576 +0.02 +0.01    +0.222    15.745
ATOM     26  O   UNL d   1      20.201   2.818  -9.797 -0.00 -0.01    -0.303    15.745
ATOM     27  H   UNL d   1      20.614   3.698  -9.912 +0.00 +0.01    +0.222    15.745
ATOM     28  O   UNL d   1      16.968   1.866  -3.230 -0.28 +0.03    -0.278    15.745
ATOM     29  P   UNL d   1      17.055   2.843  -1.975 -0.06 +0.00    +0.473    15.745
ATOM     30  O   UNL d   1      16.406   4.168  -2.150 -0.09 -0.01    -0.228    15.745
ATOM     31  O   UNL d   1      16.463   1.889  -0.836 -0.10 +0.01    -0.303    15.745
ATOM     32  H   UNL d   1      17.077   1.129  -0.712 +0.05 -0.02    +0.222    15.745
ATOM     33  O   UNL d   1      18.616   2.843  -1.659 -0.01 +0.00    -0.303    15.745
ATOM     34  H   UNL d   1      18.989   1.955  -1.883 +0.02 -0.01    +0.222    15.745
ATOM     35  O   UNL d   1      16.381   1.490  -7.811 -0.11 -0.00    -0.278    15.745
ATOM     36  P   UNL d   1      16.080  -0.070  -7.957 -0.27 -0.01    +0.473    15.745
ATOM     37  O   UNL d   1      16.213  -0.873  -6.703 -0.39 +0.01    -0.228    15.745
ATOM     38  O   UNL d   1      14.613  -0.061  -8.576 -0.25 -0.01    -0.303    15.745
ATOM     39  H   UNL d   1      14.006  -0.539  -7.971 +0.12 +0.00    +0.222    15.745
ATOM     40  O   UNL d   1      17.009  -0.482  -9.181 -0.21 -0.00    -0.303    15.745
ATOM     41  H   UNL d   1      17.771   0.132  -9.283 +0.07 +0.01    +0.222    15.745
ATOM     42  O   UNL d   1      16.007   3.282  -5.544 -0.10 -0.00    -0.278    15.745
ATOM     43  P   UNL d   1      16.731   4.626  -6.004 -0.02 +0.01    +0.473    15.745
ATOM     44  O   UNL d   1      16.521   5.073  -7.409 -0.00 -0.01    -0.228    15.745
ATOM     45  O   UNL d   1      16.250   5.675  -4.908 -0.01 -0.01    -0.303    15.745
ATOM     46  H   UNL d   1      16.222   5.273  -4.017 +0.01 +0.01    +0.222    15.745
ATOM     47  O   UNL d   1      18.257   4.385  -5.577 -0.01 -0.00    -0.303    15.745
ATOM     48  H   UNL d   1      18.844   4.639  -6.319 +0.01 +0.00    +0.222    15.745
TER
ENDMDL
MODEL       86
USER    Run = 86
USER    Cluster Rank = 70
USER    Number of conformations in this cluster = 1
USER  
USER    RMSD from reference structure       = 12.595 A
USER  
USER    Estimated Free Energy of Binding    =   +3.73 kcal/mol  [=(1)+(2)+(3)-(4)]
USER    
USER    (1) Final Intermolecular Energy     =   -3.43 kcal/mol
USER        vdW + Hbond + desolv Energy     =   -3.33 kcal/mol
USER        Electrostatic Energy            =   -0.10 kcal/mol
USER    (2) Final Total Internal Energy     =  -14.00 kcal/mol
USER    (3) Torsional Free Energy           =   +7.16 kcal/mol
USER    (4) Unbound System's Energy  [=(2)] =  -14.00 kcal/mol
USER    
USER    
USER  
USER    DPF = D:/Protein_go_brrr/autodock/final/mut_D99N/IHP/dock.dpf
USER    NEWDPF move	IHP_ideal_opt.pdbqt
USER    NEWDPF about	0.035000 0.082000 -0.065000
USER    NEWDPF tran0	10.174936 12.890114 -1.153929
USER    NEWDPF axisangle0	0.748463 0.653097 0.115185 -110.080415
USER    NEWDPF quaternion0	0.613406 0.535248 0.094400 -0.573001
USER    NEWDPF dihe0	165.08 166.37 146.68 10.65 13.77 -35.52 29.70 -0.04 -3.67 83.36 109.68 110.81 -96.95 -179.53 -70.14 7.06 -27.99 105.97 51.52 8.88 -5.02 -11.77 174.33 -21.97 
USER  
USER                              x       y       z    vdW   Elec        q     RMS 
ATOM      1  C   UNL d   1      10.777  13.168  -2.749 +0.01 +0.02    +0.194    12.595
ATOM      2  C   UNL d   1       9.557  12.251  -2.654 -0.01 +0.03    +0.194    12.595
ATOM      3  C   UNL d   1       9.684  11.256  -1.499 -0.06 +0.03    +0.194    12.595
ATOM      4  C   UNL d   1      10.011  11.922  -0.165 -0.07 +0.03    +0.194    12.595
ATOM      5  C   UNL d   1      11.149  12.931  -0.237 -0.01 +0.01    +0.194    12.595
ATOM      6  C   UNL d   1      11.054  13.888  -1.428 +0.00 +0.01    +0.194    12.595
ATOM      7  O   UNL d   1      10.507  14.171  -3.731 +0.01 -0.03    -0.278    12.595
ATOM      8  P   UNL d   1      10.467  13.737  -5.268 +0.02 +0.05    +0.473    12.595
ATOM      9  O   UNL d   1      11.580  12.850  -5.703 +0.01 -0.02    -0.228    12.595
ATOM     10  O   UNL d   1       9.028  13.070  -5.444 -0.01 -0.07    -0.303    12.595
ATOM     11  H   UNL d   1       8.507  13.197  -4.629 +0.03 +0.06    +0.222    12.595
ATOM     12  O   UNL d   1      10.305  15.095  -6.077 +0.00 -0.02    -0.303    12.595
ATOM     13  H   UNL d   1      11.037  15.253  -6.715 +0.00 +0.01    +0.222    12.595
ATOM     14  O   UNL d   1       8.387  13.051  -2.441 -0.03 -0.05    -0.278    12.595
ATOM     15  P   UNL d   1       7.062  12.604  -3.220 -0.07 +0.18    +0.473    12.595
ATOM     16  O   UNL d   1       6.417  13.633  -4.095 -0.22 -0.07    -0.228    12.595
ATOM     17  O   UNL d   1       7.505  11.301  -4.022 -0.62 -0.23    -0.303    12.595
ATOM     18  H   UNL d   1       7.946  10.659  -3.434 +0.07 +0.12    +0.222    12.595
ATOM     19  O   UNL d   1       6.129  11.982  -2.092 -0.16 -0.08    -0.303    12.595
ATOM     20  H   UNL d   1       6.610  11.336  -1.542 +0.09 +0.07    +0.222    12.595
ATOM     21  O   UNL d   1      12.327  14.517  -1.553 +0.00 -0.01    -0.278    12.595
ATOM     22  P   UNL d   1      12.497  16.049  -1.140 +0.00 +0.01    +0.473    12.595
ATOM     23  O   UNL d   1      11.404  17.000  -1.495 +0.00 -0.01    -0.228    12.595
ATOM     24  O   UNL d   1      12.802  15.934   0.417 +0.00 -0.01    -0.303    12.595
ATOM     25  H   UNL d   1      12.092  15.380   0.831 +0.00 +0.01    +0.222    12.595
ATOM     26  O   UNL d   1      13.946  16.388  -1.738 +0.00 -0.01    -0.303    12.595
ATOM     27  H   UNL d   1      13.981  17.337  -1.977 +0.00 +0.00    +0.222    12.595
ATOM     28  O   UNL d   1       8.412  10.648  -1.316 -0.19 -0.09    -0.278    12.595
ATOM     29  P   UNL d   1       8.111   9.210  -1.933 -0.09 +0.13    +0.473    12.595
ATOM     30  O   UNL d   1       9.023   8.778  -3.023 -0.14 -0.07    -0.228    12.595
ATOM     31  O   UNL d   1       8.107   8.329  -0.597 -0.16 -0.01    -0.303    12.595
ATOM     32  H   UNL d   1       7.227   8.420  -0.164 -0.40 -0.06    +0.222    12.595
ATOM     33  O   UNL d   1       6.563   9.317  -2.289 -0.88 -0.15    -0.303    12.595
ATOM     34  H   UNL d   1       6.430  10.063  -2.923 +0.09 +0.14    +0.222    12.595
ATOM     35  O   UNL d   1      11.041  13.722   0.945 -0.01 -0.01    -0.278    12.595
ATOM     36  P   UNL d   1       9.676  14.470   1.291 -0.02 +0.02    +0.473    12.595
ATOM     37  O   UNL d   1       8.471  13.992   0.545 -0.10 -0.02    -0.228    12.595
ATOM     38  O   UNL d   1       9.588  14.277   2.869 -0.03 -0.01    -0.303    12.595
ATOM     39  H   UNL d   1       9.348  13.346   3.066 +0.05 +0.00    +0.222    12.595
ATOM     40  O   UNL d   1      10.073  16.000   1.115 -0.00 -0.01    -0.303    12.595
ATOM     41  H   UNL d   1      10.637  16.141   0.322 +0.01 +0.01    +0.222    12.595
ATOM     42  O   UNL d   1      10.426  10.882   0.727 -0.06 -0.02    -0.278    12.595
ATOM     43  P   UNL d   1       9.814  10.837   2.199 -0.11 +0.02    +0.473    12.595
ATOM     44  O   UNL d   1       9.716   9.507   2.862 -0.15 -0.01    -0.228    12.595
ATOM     45  O   UNL d   1      10.712  11.890   2.983 -0.04 -0.01    -0.303    12.595
ATOM     46  H   UNL d   1      10.947  12.653   2.417 +0.03 +0.01    +0.222    12.595
ATOM     47  O   UNL d   1       8.433  11.637   2.046 -0.15 -0.04    -0.303    12.595
ATOM     48  H   UNL d   1       8.625  12.587   1.904 +0.05 +0.02    +0.222    12.595
TER
ENDMDL
MODEL      100
USER    Run = 100
USER    Cluster Rank = 71
USER    Number of conformations in this cluster = 1
USER  
USER    RMSD from reference structure       = 20.214 A
USER  
USER    Estimated Free Energy of Binding    =   +3.75 kcal/mol  [=(1)+(2)+(3)-(4)]
USER    
USER    (1) Final Intermolecular Energy     =   -3.41 kcal/mol
USER        vdW + Hbond + desolv Energy     =   -3.33 kcal/mol
USER        Electrostatic Energy            =   -0.07 kcal/mol
USER    (2) Final Total Internal Energy     =  -13.36 kcal/mol
USER    (3) Torsional Free Energy           =   +7.16 kcal/mol
USER    (4) Unbound System's Energy  [=(2)] =  -13.36 kcal/mol
USER    
USER    
USER  
USER    DPF = D:/Protein_go_brrr/autodock/final/mut_D99N/IHP/dock.dpf
USER    NEWDPF move	IHP_ideal_opt.pdbqt
USER    NEWDPF about	0.035000 0.082000 -0.065000
USER    NEWDPF tran0	0.648841 17.382162 15.790191
USER    NEWDPF axisangle0	-0.107923 -0.876488 -0.469172 142.917960
USER    NEWDPF quaternion0	-0.102321 -0.830995 -0.444820 0.317984
USER    NEWDPF dihe0	-166.54 39.09 174.58 -1.36 158.60 99.05 -56.74 60.38 162.71 20.94 -179.98 -180.00 12.08 84.39 49.31 -177.09 -180.00 71.57 8.20 -42.80 -32.91 -35.01 -174.94 17.88 
USER  
USER                              x       y       z    vdW   Elec        q     RMS 
ATOM      1  C   UNL d   1       0.266  17.965  14.210 -0.03 -0.02    +0.194    20.214
ATOM      2  C   UNL d   1       1.097  16.682  14.257 -0.08 -0.03    +0.194    20.214
ATOM      3  C   UNL d   1       2.204  16.763  15.311 -0.07 -0.03    +0.194    20.214
ATOM      4  C   UNL d   1       1.692  17.170  16.691 -0.07 -0.03    +0.194    20.214
ATOM      5  C   UNL d   1       0.764  18.379  16.676 -0.03 -0.02    +0.194    20.214
ATOM      6  C   UNL d   1      -0.304  18.326  15.582 -0.03 -0.02    +0.194    20.214
ATOM      7  O   UNL d   1      -0.842  17.746  13.333 -0.02 +0.03    -0.278    20.214
ATOM      8  P   UNL d   1      -0.914  18.588  11.977 -0.01 -0.02    +0.473    20.214
ATOM      9  O   UNL d   1       0.190  18.329  11.014 -0.07 +0.00    -0.228    20.214
ATOM     10  O   UNL d   1      -2.356  18.246  11.386 -0.02 +0.02    -0.303    20.214
ATOM     11  H   UNL d   1      -2.993  18.144  12.117 +0.03 -0.02    +0.222    20.214
ATOM     12  O   UNL d   1      -1.093  20.098  12.437 -0.00 +0.01    -0.303    20.214
ATOM     13  H   UNL d   1      -1.217  20.193  13.408 +0.00 -0.01    +0.222    20.214
ATOM     14  O   UNL d   1       0.239  15.581  14.580 -0.15 +0.07    -0.278    20.214
ATOM     15  P   UNL d   1      -0.464  14.836  13.349 -0.21 -0.12    +0.473    20.214
ATOM     16  O   UNL d   1      -0.549  13.344  13.426 -0.74 +0.08    -0.228    20.214
ATOM     17  O   UNL d   1      -1.893  15.532  13.239 -0.15 +0.08    -0.303    20.214
ATOM     18  H   UNL d   1      -1.829  16.397  12.792 +0.06 -0.04    +0.222    20.214
ATOM     19  O   UNL d   1       0.272  15.415  12.063 -0.17 +0.03    -0.303    20.214
ATOM     20  H   UNL d   1       0.153  16.380  11.983 +0.07 -0.02    +0.222    20.214
ATOM     21  O   UNL d   1      -0.850  19.639  15.476 -0.00 +0.02    -0.278    20.214
ATOM     22  P   UNL d   1      -2.430  19.834  15.372 +0.00 -0.03    +0.473    20.214
ATOM     23  O   UNL d   1      -3.234  19.755  16.626 -0.00 +0.02    -0.228    20.214
ATOM     24  O   UNL d   1      -2.536  21.221  14.597 +0.00 +0.01    -0.303    20.214
ATOM     25  H   UNL d   1      -2.600  21.027  13.627 +0.00 -0.01    +0.222    20.214
ATOM     26  O   UNL d   1      -2.812  18.783  14.224 -0.00 +0.02    -0.303    20.214
ATOM     27  H   UNL d   1      -2.541  19.143  13.355 +0.01 -0.01    +0.222    20.214
ATOM     28  O   UNL d   1       2.733  15.454  15.477 -0.11 +0.07    -0.278    20.214
ATOM     29  P   UNL d   1       3.709  14.835  14.380 -0.09 -0.06    +0.473    20.214
ATOM     30  O   UNL d   1       4.604  13.751  14.857 -0.17 +0.01    -0.228    20.214
ATOM     31  O   UNL d   1       2.646  14.454  13.246 -0.11 +0.04    -0.303    20.214
ATOM     32  H   UNL d   1       1.741  14.631  13.591 +0.10 -0.04    +0.222    20.214
ATOM     33  O   UNL d   1       4.407  16.136  13.784 -0.02 +0.02    -0.303    20.214
ATOM     34  H   UNL d   1       5.382  16.074  13.934 +0.03 -0.01    +0.222    20.214
ATOM     35  O   UNL d   1       0.083  18.359  17.929 -0.02 +0.03    -0.278    20.214
ATOM     36  P   UNL d   1      -0.508  16.992  18.502 -0.08 -0.06    +0.473    20.214
ATOM     37  O   UNL d   1      -1.888  17.075  19.071 -0.07 +0.02    -0.228    20.214
ATOM     38  O   UNL d   1      -0.376  16.027  17.243 -0.08 +0.07    -0.303    20.214
ATOM     39  H   UNL d   1       0.481  15.551  17.291 -0.44 -0.13    +0.222    20.214
ATOM     40  O   UNL d   1       0.648  16.506  19.480 -0.10 +0.05    -0.303    20.214
ATOM     41  H   UNL d   1       1.510  16.925  19.262 +0.03 -0.03    +0.222    20.214
ATOM     42  O   UNL d   1       2.838  17.529  17.469 -0.03 +0.03    -0.278    20.214
ATOM     43  P   UNL d   1       3.527  16.418  18.384 -0.05 -0.06    +0.473    20.214
ATOM     44  O   UNL d   1       4.935  16.046  18.069 -0.04 +0.02    -0.228    20.214
ATOM     45  O   UNL d   1       3.320  16.997  19.852 -0.02 +0.03    -0.303    20.214
ATOM     46  H   UNL d   1       2.640  16.494  20.342 +0.03 -0.03    +0.222    20.214
ATOM     47  O   UNL d   1       2.470  15.213  18.356 -0.16 +0.08    -0.303    20.214
ATOM     48  H   UNL d   1       1.696  15.475  17.816 -0.29 -0.10    +0.222    20.214
TER
ENDMDL
MODEL       15
USER    Run = 15
USER    Cluster Rank = 72
USER    Number of conformations in this cluster = 1
USER  
USER    RMSD from reference structure       = 18.508 A
USER  
USER    Estimated Free Energy of Binding    =   +3.76 kcal/mol  [=(1)+(2)+(3)-(4)]
USER    
USER    (1) Final Intermolecular Energy     =   -3.40 kcal/mol
USER        vdW + Hbond + desolv Energy     =   -3.21 kcal/mol
USER        Electrostatic Energy            =   -0.19 kcal/mol
USER    (2) Final Total Internal Energy     =  -14.71 kcal/mol
USER    (3) Torsional Free Energy           =   +7.16 kcal/mol
USER    (4) Unbound System's Energy  [=(2)] =  -14.71 kcal/mol
USER    
USER    
USER  
USER    DPF = D:/Protein_go_brrr/autodock/final/mut_D99N/IHP/dock.dpf
USER    NEWDPF move	IHP_ideal_opt.pdbqt
USER    NEWDPF about	0.035000 0.082000 -0.065000
USER    NEWDPF tran0	-15.862723 11.796878 9.502875
USER    NEWDPF axisangle0	0.683181 0.502862 -0.529522 -178.563259
USER    NEWDPF quaternion0	0.683128 0.502822 -0.529480 -0.012538
USER    NEWDPF dihe0	177.20 -45.43 92.81 74.64 81.44 138.43 -55.39 -142.28 119.00 -29.21 1.66 -142.75 -119.59 101.06 -101.50 125.32 -120.99 -4.53 43.07 -7.29 -15.14 -10.46 -7.66 165.09 
USER  
USER                              x       y       z    vdW   Elec        q     RMS 
ATOM      1  C   UNL d   1     -17.130  12.645   8.691 -0.04 -0.08    +0.194    18.508
ATOM      2  C   UNL d   1     -17.348  12.404  10.186 -0.03 -0.06    +0.194    18.508
ATOM      3  C   UNL d   1     -16.948  10.985  10.595 -0.05 -0.04    +0.194    18.508
ATOM      4  C   UNL d   1     -15.538  10.605  10.149 -0.17 -0.06    +0.194    18.508
ATOM      5  C   UNL d   1     -15.239  10.934   8.692 -0.14 -0.09    +0.194    18.508
ATOM      6  C   UNL d   1     -15.695  12.331   8.266 -0.06 -0.15    +0.194    18.508
ATOM      7  O   UNL d   1     -17.360  14.031   8.424 -0.02 +0.11    -0.278    18.508
ATOM      8  P   UNL d   1     -18.869  14.538   8.293 +0.01 -0.08    +0.473    18.508
ATOM      9  O   UNL d   1     -19.602  14.037   7.099 +0.00 +0.02    -0.228    18.508
ATOM     10  O   UNL d   1     -19.544  14.105   9.672 +0.00 +0.04    -0.303    18.508
ATOM     11  H   UNL d   1     -18.850  13.940  10.338 +0.01 -0.04    +0.222    18.508
ATOM     12  O   UNL d   1     -18.788  16.118   8.445 +0.00 +0.05    -0.303    18.508
ATOM     13  H   UNL d   1     -18.883  16.421   9.376 +0.00 -0.03    +0.222    18.508
ATOM     14  O   UNL d   1     -16.552  13.335  10.930 -0.06 +0.16    -0.278    18.508
ATOM     15  P   UNL d   1     -17.328  14.257  11.985 -0.01 -0.14    +0.473    18.508
ATOM     16  O   UNL d   1     -16.518  14.815  13.113 -0.02 +0.06    -0.228    18.508
ATOM     17  O   UNL d   1     -18.000  15.390  11.089 -0.00 +0.07    -0.303    18.508
ATOM     18  H   UNL d   1     -17.752  15.289  10.150 +0.01 -0.07    +0.222    18.508
ATOM     19  O   UNL d   1     -18.593  13.393  12.411 -0.00 +0.04    -0.303    18.508
ATOM     20  H   UNL d   1     -18.498  12.460  12.146 +0.01 -0.03    +0.222    18.508
ATOM     21  O   UNL d   1     -15.665  12.358   6.841 -0.05 +0.13    -0.278    18.508
ATOM     22  P   UNL d   1     -14.687  13.368   6.088 -0.06 -0.28    +0.473    18.508
ATOM     23  O   UNL d   1     -15.013  14.823   6.124 -0.06 +0.13    -0.228    18.508
ATOM     24  O   UNL d   1     -13.276  12.985   6.717 -0.20 +0.33    -0.303    18.508
ATOM     25  H   UNL d   1     -13.369  12.109   7.171 +0.07 -0.20    +0.222    18.508
ATOM     26  O   UNL d   1     -14.592  12.705   4.632 -0.04 +0.09    -0.303    18.508
ATOM     27  H   UNL d   1     -14.609  11.730   4.720 +0.08 -0.05    +0.222    18.508
ATOM     28  O   UNL d   1     -16.918  10.942  12.016 -0.03 +0.03    -0.278    18.508
ATOM     29  P   UNL d   1     -18.140  10.321  12.828 +0.00 -0.01    +0.473    18.508
ATOM     30  O   UNL d   1     -17.955   8.922  13.293 -0.02 -0.02    -0.228    18.508
ATOM     31  O   UNL d   1     -18.326  11.443  13.954 -0.00 +0.01    -0.303    18.508
ATOM     32  H   UNL d   1     -17.616  12.117  13.845 +0.02 -0.02    +0.222    18.508
ATOM     33  O   UNL d   1     -19.366  10.598  11.850 +0.00 +0.01    -0.303    18.508
ATOM     34  H   UNL d   1     -19.687  11.522  11.992 +0.00 -0.01    +0.222    18.508
ATOM     35  O   UNL d   1     -13.818  10.901   8.572 -0.24 +0.16    -0.278    18.508
ATOM     36  P   UNL d   1     -13.123   9.931   7.514 -0.30 -0.12    +0.473    18.508
ATOM     37  O   UNL d   1     -13.067   8.487   7.902 -0.42 +0.02    -0.228    18.508
ATOM     38  O   UNL d   1     -13.969  10.223   6.197 -0.10 +0.07    -0.303    18.508
ATOM     39  H   UNL d   1     -14.033  11.193   6.065 +0.09 -0.08    +0.222    18.508
ATOM     40  O   UNL d   1     -11.735  10.660   7.246 -0.84 +0.10    -0.303    18.508
ATOM     41  H   UNL d   1     -11.852  11.489   6.732 -0.40 -0.17    +0.222    18.508
ATOM     42  O   UNL d   1     -15.427   9.185  10.291 -0.15 -0.01    -0.278    18.508
ATOM     43  P   UNL d   1     -16.512   8.252   9.586 -0.04 +0.03    +0.473    18.508
ATOM     44  O   UNL d   1     -16.946   8.623   8.210 -0.02 +0.00    -0.228    18.508
ATOM     45  O   UNL d   1     -15.852   6.807   9.693 -0.03 -0.08    -0.303    18.508
ATOM     46  H   UNL d   1     -15.085   6.719   9.093 +0.06 +0.06    +0.222    18.508
ATOM     47  O   UNL d   1     -17.681   8.158  10.678 -0.03 -0.02    -0.303    18.508
ATOM     48  H   UNL d   1     -17.761   9.018  11.140 +0.03 +0.01    +0.222    18.508
TER
ENDMDL
MODEL       16
USER    Run = 16
USER    Cluster Rank = 73
USER    Number of conformations in this cluster = 1
USER  
USER    RMSD from reference structure       = 14.669 A
USER  
USER    Estimated Free Energy of Binding    =   +3.88 kcal/mol  [=(1)+(2)+(3)-(4)]
USER    
USER    (1) Final Intermolecular Energy     =   -3.28 kcal/mol
USER        vdW + Hbond + desolv Energy     =   -3.21 kcal/mol
USER        Electrostatic Energy            =   -0.07 kcal/mol
USER    (2) Final Total Internal Energy     =  -14.55 kcal/mol
USER    (3) Torsional Free Energy           =   +7.16 kcal/mol
USER    (4) Unbound System's Energy  [=(2)] =  -14.55 kcal/mol
USER    
USER    
USER  
USER    DPF = D:/Protein_go_brrr/autodock/final/mut_D99N/IHP/dock.dpf
USER    NEWDPF move	IHP_ideal_opt.pdbqt
USER    NEWDPF about	0.035000 0.082000 -0.065000
USER    NEWDPF tran0	-3.664004 -14.128720 9.228154
USER    NEWDPF axisangle0	-0.984904 -0.123167 0.121632 -71.499368
USER    NEWDPF quaternion0	-0.575425 -0.071960 0.071063 -0.811577
USER    NEWDPF dihe0	89.83 -13.27 -179.91 -22.98 114.58 122.08 -71.69 -47.08 58.10 106.96 13.37 -179.92 132.30 173.79 180.00 -1.15 -50.75 -135.35 -13.22 23.35 3.74 19.78 168.28 -26.59 
USER  
USER                              x       y       z    vdW   Elec        q     RMS 
ATOM      1  C   UNL d   1      -2.565 -13.441  10.369 -0.10 -0.07    +0.194    14.669
ATOM      2  C   UNL d   1      -3.688 -14.292  10.964 -0.07 +0.01    +0.194    14.669
ATOM      3  C   UNL d   1      -5.033 -14.003  10.296 -0.06 +0.10    +0.194    14.669
ATOM      4  C   UNL d   1      -4.981 -14.098   8.773 -0.05 +0.09    +0.194    14.669
ATOM      5  C   UNL d   1      -3.808 -13.357   8.144 -0.12 +0.02    +0.194    14.669
ATOM      6  C   UNL d   1      -2.473 -13.598   8.851 -0.15 -0.05    +0.194    14.669
ATOM      7  O   UNL d   1      -1.325 -13.890  10.921 -0.07 +0.08    -0.278    14.669
ATOM      8  P   UNL d   1      -0.270 -12.795  11.410 -0.11 -0.17    +0.473    14.669
ATOM      9  O   UNL d   1       1.031 -13.339  11.886 -0.21 +0.04    -0.228    14.669
ATOM     10  O   UNL d   1      -0.121 -11.815  10.160 -0.05 +0.20    -0.303    14.669
ATOM     11  H   UNL d   1       0.321 -12.284   9.428 -0.24 -0.14    +0.222    14.669
ATOM     12  O   UNL d   1      -1.065 -11.891  12.448 -0.11 +0.15    -0.303    14.669
ATOM     13  H   UNL d   1      -1.864 -11.469  12.058 -0.33 -0.27    +0.222    14.669
ATOM     14  O   UNL d   1      -3.373 -15.678  10.775 -0.00 +0.00    -0.278    14.669
ATOM     15  P   UNL d   1      -4.034 -16.709  11.808 +0.02 +0.01    +0.473    14.669
ATOM     16  O   UNL d   1      -3.115 -17.704  12.443 +0.00 +0.00    -0.228    14.669
ATOM     17  O   UNL d   1      -4.765 -15.776  12.872 +0.01 -0.01    -0.303    14.669
ATOM     18  H   UNL d   1      -5.653 -15.516  12.561 +0.01 +0.02    +0.222    14.669
ATOM     19  O   UNL d   1      -5.270 -17.323  11.018 +0.01 -0.01    -0.303    14.669
ATOM     20  H   UNL d   1      -6.052 -16.742  11.065 +0.01 +0.01    +0.222    14.669
ATOM     21  O   UNL d   1      -1.571 -12.599   8.381 -0.24 +0.20    -0.278    14.669
ATOM     22  P   UNL d   1      -0.532 -12.952   7.223 -0.27 -0.12    +0.473    14.669
ATOM     23  O   UNL d   1       0.775 -12.233   7.205 -0.35 +0.01    -0.228    14.669
ATOM     24  O   UNL d   1      -0.421 -14.534   7.356 -0.05 +0.05    -0.303    14.669
ATOM     25  H   UNL d   1      -1.339 -14.905   7.401 +0.05 -0.03    +0.222    14.669
ATOM     26  O   UNL d   1      -1.440 -12.793   5.911 -0.21 +0.05    -0.303    14.669
ATOM     27  H   UNL d   1      -2.255 -13.323   6.019 +0.08 -0.03    +0.222    14.669
ATOM     28  O   UNL d   1      -5.943 -15.016  10.706 -0.02 -0.07    -0.278    14.669
ATOM     29  P   UNL d   1      -7.381 -14.626  11.269 -0.00 +0.11    +0.473    14.669
ATOM     30  O   UNL d   1      -7.477 -13.289  11.910 -0.03 -0.09    -0.228    14.669
ATOM     31  O   UNL d   1      -8.269 -14.870   9.961 -0.00 -0.06    -0.303    14.669
ATOM     32  H   UNL d   1      -7.677 -14.856   9.173 +0.01 +0.05    +0.222    14.669
ATOM     33  O   UNL d   1      -7.737 -15.886  12.176 +0.00 -0.03    -0.303    14.669
ATOM     34  H   UNL d   1      -6.925 -16.437  12.293 +0.00 +0.01    +0.222    14.669
ATOM     35  O   UNL d   1      -3.684 -13.878   6.823 -0.06 +0.00    -0.278    14.669
ATOM     36  P   UNL d   1      -3.376 -15.426   6.594 +0.02 -0.01    +0.473    14.669
ATOM     37  O   UNL d   1      -3.088 -16.216   7.832 +0.00 +0.00    -0.228    14.669
ATOM     38  O   UNL d   1      -4.671 -15.903   5.800 +0.00 -0.00    -0.303    14.669
ATOM     39  H   UNL d   1      -5.353 -15.198   5.845 +0.02 +0.01    +0.222    14.669
ATOM     40  O   UNL d   1      -2.239 -15.386   5.483 -0.00 +0.02    -0.303    14.669
ATOM     41  H   UNL d   1      -1.415 -14.968   5.819 +0.05 -0.02    +0.222    14.669
ATOM     42  O   UNL d   1      -6.178 -13.488   8.278 -0.56 -0.22    -0.278    14.669
ATOM     43  P   UNL d   1      -6.963 -14.190   7.080 -0.02 +0.11    +0.473    14.669
ATOM     44  O   UNL d   1      -6.582 -13.808   5.692 -0.02 -0.03    -0.228    14.669
ATOM     45  O   UNL d   1      -6.780 -15.738   7.403 +0.00 -0.03    -0.303    14.669
ATOM     46  H   UNL d   1      -5.835 -15.990   7.423 +0.01 +0.02    +0.222    14.669
ATOM     47  O   UNL d   1      -8.502 -13.958   7.464 -0.01 -0.06    -0.303    14.669
ATOM     48  H   UNL d   1      -8.553 -13.474   8.315 +0.02 +0.07    +0.222    14.669
TER
ENDMDL
MODEL       33
USER    Run = 33
USER    Cluster Rank = 74
USER    Number of conformations in this cluster = 1
USER  
USER    RMSD from reference structure       = 22.677 A
USER  
USER    Estimated Free Energy of Binding    =   +3.90 kcal/mol  [=(1)+(2)+(3)-(4)]
USER    
USER    (1) Final Intermolecular Energy     =   -3.26 kcal/mol
USER        vdW + Hbond + desolv Energy     =   -2.84 kcal/mol
USER        Electrostatic Energy            =   -0.42 kcal/mol
USER    (2) Final Total Internal Energy     =  -13.51 kcal/mol
USER    (3) Torsional Free Energy           =   +7.16 kcal/mol
USER    (4) Unbound System's Energy  [=(2)] =  -13.51 kcal/mol
USER    
USER    
USER  
USER    DPF = D:/Protein_go_brrr/autodock/final/mut_D99N/IHP/dock.dpf
USER    NEWDPF move	IHP_ideal_opt.pdbqt
USER    NEWDPF about	0.035000 0.082000 -0.065000
USER    NEWDPF tran0	-11.525502 13.954825 -18.946196
USER    NEWDPF axisangle0	0.515983 0.454970 -0.725785 -84.172116
USER    NEWDPF quaternion0	0.345835 0.304942 -0.486454 -0.742139
USER    NEWDPF dihe0	134.01 48.66 129.71 -60.52 -25.35 167.93 -26.93 -11.72 129.30 -21.18 17.79 -1.79 -177.37 -164.24 -176.10 142.83 -180.00 -81.78 27.79 -23.61 169.58 -29.03 7.54 164.30 
USER  
USER                              x       y       z    vdW   Elec        q     RMS 
ATOM      1  C   UNL d   1     -11.835  12.418 -19.673 -0.06 -0.13    +0.194    22.677
ATOM      2  C   UNL d   1     -13.053  13.124 -19.074 -0.04 -0.13    +0.194    22.677
ATOM      3  C   UNL d   1     -12.736  13.746 -17.712 -0.06 -0.12    +0.194    22.677
ATOM      4  C   UNL d   1     -11.501  14.644 -17.735 -0.04 -0.07    +0.194    22.677
ATOM      5  C   UNL d   1     -10.294  14.023 -18.426 -0.06 -0.06    +0.194    22.677
ATOM      6  C   UNL d   1     -10.623  13.347 -19.759 -0.04 -0.07    +0.194    22.677
ATOM      7  O   UNL d   1     -12.161  12.019 -21.006 -0.02 +0.11    -0.278    22.677
ATOM      8  P   UNL d   1     -12.702  10.535 -21.243 -0.02 -0.21    +0.473    22.677
ATOM      9  O   UNL d   1     -11.949   9.743 -22.255 -0.01 +0.05    -0.228    22.677
ATOM     10  O   UNL d   1     -12.680   9.878 -19.789 -0.03 +0.36    -0.303    22.677
ATOM     11  H   UNL d   1     -12.032  10.345 -19.230 -0.30 -0.42    +0.222    22.677
ATOM     12  O   UNL d   1     -14.259  10.700 -21.510 -0.01 +0.10    -0.303    22.677
ATOM     13  H   UNL d   1     -14.549  11.639 -21.531 +0.01 -0.06    +0.222    22.677
ATOM     14  O   UNL d   1     -13.474  14.165 -19.964 -0.01 +0.08    -0.278    22.677
ATOM     15  P   UNL d   1     -14.834  13.912 -20.770 +0.01 -0.10    +0.473    22.677
ATOM     16  O   UNL d   1     -14.707  13.650 -22.239 +0.00 +0.03    -0.228    22.677
ATOM     17  O   UNL d   1     -15.530  12.711 -19.988 -0.01 +0.09    -0.303    22.677
ATOM     18  H   UNL d   1     -15.345  12.761 -19.031 +0.01 -0.10    +0.222    22.677
ATOM     19  O   UNL d   1     -15.767  15.137 -20.370 +0.00 +0.04    -0.303    22.677
ATOM     20  H   UNL d   1     -16.590  14.838 -19.943 +0.00 -0.03    +0.222    22.677
ATOM     21  O   UNL d   1      -9.500  12.538 -20.099 -0.03 +0.07    -0.278    22.677
ATOM     22  P   UNL d   1      -9.146  11.260 -19.212 -0.11 -0.18    +0.473    22.677
ATOM     23  O   UNL d   1      -7.709  10.900 -19.037 -0.14 +0.04    -0.228    22.677
ATOM     24  O   UNL d   1      -9.924  11.577 -17.860 -0.13 +0.23    -0.303    22.677
ATOM     25  H   UNL d   1      -9.306  12.061 -17.255 +0.02 -0.08    +0.222    22.677
ATOM     26  O   UNL d   1     -10.078  10.136 -19.874 -0.11 +0.15    -0.303    22.677
ATOM     27  H   UNL d   1     -10.656  10.552 -20.545 +0.03 -0.10    +0.222    22.677
ATOM     28  O   UNL d   1     -13.819  14.601 -17.369 -0.02 +0.10    -0.278    22.677
ATOM     29  P   UNL d   1     -15.146  13.999 -16.727 -0.01 -0.18    +0.473    22.677
ATOM     30  O   UNL d   1     -15.458  14.459 -15.350 -0.01 +0.06    -0.228    22.677
ATOM     31  O   UNL d   1     -16.202  14.369 -17.872 +0.00 +0.07    -0.303    22.677
ATOM     32  H   UNL d   1     -15.720  14.460 -18.726 +0.01 -0.05    +0.222    22.677
ATOM     33  O   UNL d   1     -14.938  12.434 -16.934 -0.07 +0.24    -0.303    22.677
ATOM     34  H   UNL d   1     -14.025  12.191 -16.642 -0.11 -0.30    +0.222    22.677
ATOM     35  O   UNL d   1      -9.412  15.106 -18.711 -0.01 +0.04    -0.278    22.677
ATOM     36  P   UNL d   1      -7.841  14.947 -18.481 +0.00 -0.05    +0.473    22.677
ATOM     37  O   UNL d   1      -7.168  16.100 -17.808 -0.00 +0.02    -0.228    22.677
ATOM     38  O   UNL d   1      -7.768  13.580 -17.668 -0.10 +0.04    -0.303    22.677
ATOM     39  H   UNL d   1      -8.167  12.863 -18.207 +0.04 -0.04    +0.222    22.677
ATOM     40  O   UNL d   1      -7.324  14.556 -19.934 -0.00 +0.02    -0.303    22.677
ATOM     41  H   UNL d   1      -7.701  13.701 -20.237 +0.02 -0.02    +0.222    22.677
ATOM     42  O   UNL d   1     -11.133  14.876 -16.371 -0.03 +0.09    -0.278    22.677
ATOM     43  P   UNL d   1     -10.918  13.623 -15.406 -0.13 -0.25    +0.473    22.677
ATOM     44  O   UNL d   1     -11.812  12.448 -15.598 -0.15 +0.25    -0.228    22.677
ATOM     45  O   UNL d   1      -9.371  13.302 -15.592 -0.76 +0.07    -0.303    22.677
ATOM     46  H   UNL d   1      -9.145  13.160 -16.533 +0.03 -0.04    +0.222    22.677
ATOM     47  O   UNL d   1     -10.942  14.279 -13.944 -0.09 +0.12    -0.303    22.677
ATOM     48  H   UNL d   1     -10.861  13.571 -13.272 -0.32 -0.14    +0.222    22.677
TER
ENDMDL
MODEL       54
USER    Run = 54
USER    Cluster Rank = 75
USER    Number of conformations in this cluster = 1
USER  
USER    RMSD from reference structure       = 11.883 A
USER  
USER    Estimated Free Energy of Binding    =   +3.92 kcal/mol  [=(1)+(2)+(3)-(4)]
USER    
USER    (1) Final Intermolecular Energy     =   -3.24 kcal/mol
USER        vdW + Hbond + desolv Energy     =   -3.02 kcal/mol
USER        Electrostatic Energy            =   -0.22 kcal/mol
USER    (2) Final Total Internal Energy     =  -14.22 kcal/mol
USER    (3) Torsional Free Energy           =   +7.16 kcal/mol
USER    (4) Unbound System's Energy  [=(2)] =  -14.22 kcal/mol
USER    
USER    
USER  
USER    DPF = D:/Protein_go_brrr/autodock/final/mut_D99N/IHP/dock.dpf
USER    NEWDPF move	IHP_ideal_opt.pdbqt
USER    NEWDPF about	0.035000 0.082000 -0.065000
USER    NEWDPF tran0	-14.616232 -5.990570 -0.812800
USER    NEWDPF axisangle0	-0.506068 0.454910 -0.732770 -87.668963
USER    NEWDPF quaternion0	-0.350491 0.315061 -0.507500 -0.721344
USER    NEWDPF dihe0	-179.98 158.19 158.52 -16.24 -180.00 -148.28 -39.61 -96.94 -25.65 27.41 19.89 166.15 -104.21 176.74 10.74 -46.46 -178.25 162.83 53.76 12.22 156.47 7.57 -35.30 -10.25 
USER  
USER                              x       y       z    vdW   Elec        q     RMS 
ATOM      1  C   UNL d   1     -14.071  -7.250   0.236 -0.01 +0.03    +0.194    11.883
ATOM      2  C   UNL d   1     -15.138  -6.322   0.818 -0.02 +0.05    +0.194    11.883
ATOM      3  C   UNL d   1     -14.856  -4.855   0.485 -0.06 +0.09    +0.194    11.883
ATOM      4  C   UNL d   1     -14.627  -4.610  -1.005 -0.06 +0.05    +0.194    11.883
ATOM      5  C   UNL d   1     -13.655  -5.587  -1.653 -0.05 +0.02    +0.194    11.883
ATOM      6  C   UNL d   1     -13.899  -7.049  -1.270 -0.01 +0.01    +0.194    11.883
ATOM      7  O   UNL d   1     -14.494  -8.600   0.440 +0.00 -0.01    -0.278    11.883
ATOM      8  P   UNL d   1     -14.528  -9.168   1.933 +0.01 +0.04    +0.473    11.883
ATOM      9  O   UNL d   1     -13.262  -9.004   2.699 -0.01 -0.02    -0.228    11.883
ATOM     10  O   UNL d   1     -15.769  -8.422   2.603 +0.00 -0.04    -0.303    11.883
ATOM     11  H   UNL d   1     -16.380  -8.114   1.907 +0.00 +0.03    +0.222    11.883
ATOM     12  O   UNL d   1     -15.068 -10.656   1.797 +0.00 -0.01    -0.303    11.883
ATOM     13  H   UNL d   1     -14.393 -11.334   2.026 +0.00 +0.00    +0.222    11.883
ATOM     14  O   UNL d   1     -16.414  -6.677   0.271 -0.00 -0.04    -0.278    11.883
ATOM     15  P   UNL d   1     -17.673  -6.555   1.253 +0.01 +0.07    +0.473    11.883
ATOM     16  O   UNL d   1     -18.550  -7.762   1.375 +0.00 -0.02    -0.228    11.883
ATOM     17  O   UNL d   1     -17.037  -6.110   2.645 -0.00 -0.08    -0.303    11.883
ATOM     18  H   UNL d   1     -16.604  -5.238   2.571 +0.01 +0.09    +0.222    11.883
ATOM     19  O   UNL d   1     -18.405  -5.219   0.796 +0.00 -0.04    -0.303    11.883
ATOM     20  H   UNL d   1     -17.931  -4.424   1.104 +0.01 +0.05    +0.222    11.883
ATOM     21  O   UNL d   1     -12.737  -7.777  -1.660 -0.01 +0.04    -0.278    11.883
ATOM     22  P   UNL d   1     -11.301  -7.308  -1.147 -0.04 -0.12    +0.473    11.883
ATOM     23  O   UNL d   1     -11.171  -6.854   0.268 -0.09 -0.00    -0.228    11.883
ATOM     24  O   UNL d   1     -10.394  -8.558  -1.533 -0.06 +0.30    -0.303    11.883
ATOM     25  H   UNL d   1      -9.753  -8.270  -2.232 -0.46 -0.42    +0.222    11.883
ATOM     26  O   UNL d   1     -10.887  -6.240  -2.269 -0.10 +0.07    -0.303    11.883
ATOM     27  H   UNL d   1     -11.680  -5.733  -2.538 +0.09 -0.02    +0.222    11.883
ATOM     28  O   UNL d   1     -16.020  -4.109   0.816 -0.04 -0.12    -0.278    11.883
ATOM     29  P   UNL d   1     -15.957  -2.970   1.927 -0.03 +0.40    +0.473    11.883
ATOM     30  O   UNL d   1     -15.834  -3.447   3.328 -0.18 -0.26    -0.228    11.883
ATOM     31  O   UNL d   1     -14.753  -2.086   1.352 -0.60 -0.37    -0.303    11.883
ATOM     32  H   UNL d   1     -14.559  -2.380   0.432 +0.05 +0.17    +0.222    11.883
ATOM     33  O   UNL d   1     -17.237  -2.090   1.576 -0.03 -0.12    -0.303    11.883
ATOM     34  H   UNL d   1     -17.335  -2.042   0.594 +0.03 +0.06    +0.222    11.883
ATOM     35  O   UNL d   1     -13.875  -5.479  -3.057 -0.05 -0.01    -0.278    11.883
ATOM     36  P   UNL d   1     -12.963  -4.515  -3.943 -0.18 +0.02    +0.473    11.883
ATOM     37  O   UNL d   1     -13.696  -3.642  -4.910 -0.24 -0.04    -0.228    11.883
ATOM     38  O   UNL d   1     -12.151  -3.719  -2.827 -0.18 -0.04    -0.303    11.883
ATOM     39  H   UNL d   1     -12.604  -2.867  -2.648 +0.10 +0.04    +0.222    11.883
ATOM     40  O   UNL d   1     -11.892  -5.523  -4.549 -0.13 +0.03    -0.303    11.883
ATOM     41  H   UNL d   1     -11.901  -6.388  -4.082 +0.09 -0.04    +0.222    11.883
ATOM     42  O   UNL d   1     -14.055  -3.303  -1.127 -0.10 -0.09    -0.278    11.883
ATOM     43  P   UNL d   1     -14.812  -2.208  -2.005 -0.19 +0.10    +0.473    11.883
ATOM     44  O   UNL d   1     -13.983  -1.155  -2.654 -0.35 -0.04    -0.228    11.883
ATOM     45  O   UNL d   1     -15.651  -3.097  -3.024 -0.13 -0.04    -0.303    11.883
ATOM     46  H   UNL d   1     -15.080  -3.739  -3.492 +0.07 +0.03    +0.222    11.883
ATOM     47  O   UNL d   1     -15.958  -1.676  -1.018 -0.11 -0.07    -0.303    11.883
ATOM     48  H   UNL d   1     -16.050  -2.297  -0.266 +0.05 +0.07    +0.222    11.883
TER
ENDMDL
MODEL       58
USER    Run = 58
USER    Cluster Rank = 76
USER    Number of conformations in this cluster = 1
USER  
USER    RMSD from reference structure       = 12.933 A
USER  
USER    Estimated Free Energy of Binding    =   +3.92 kcal/mol  [=(1)+(2)+(3)-(4)]
USER    
USER    (1) Final Intermolecular Energy     =   -3.24 kcal/mol
USER        vdW + Hbond + desolv Energy     =   -3.08 kcal/mol
USER        Electrostatic Energy            =   -0.16 kcal/mol
USER    (2) Final Total Internal Energy     =  -12.33 kcal/mol
USER    (3) Torsional Free Energy           =   +7.16 kcal/mol
USER    (4) Unbound System's Energy  [=(2)] =  -12.33 kcal/mol
USER    
USER    
USER  
USER    DPF = D:/Protein_go_brrr/autodock/final/mut_D99N/IHP/dock.dpf
USER    NEWDPF move	IHP_ideal_opt.pdbqt
USER    NEWDPF about	0.035000 0.082000 -0.065000
USER    NEWDPF tran0	7.633738 6.733050 -11.368269
USER    NEWDPF axisangle0	-0.579835 0.766362 0.276553 167.894325
USER    NEWDPF quaternion0	-0.576602 0.762089 0.275011 0.105446
USER    NEWDPF dihe0	131.89 144.01 -40.13 118.47 45.71 -67.06 -94.54 -31.58 45.26 179.61 173.15 -95.46 -88.11 -20.57 -58.46 39.83 -82.96 76.19 -135.44 -19.49 179.98 -8.25 -177.10 26.65 
USER  
USER                              x       y       z    vdW   Elec        q     RMS 
ATOM      1  C   UNL d   1       7.593   5.631 -12.698 -0.02 +0.03    +0.194    12.933
ATOM      2  C   UNL d   1       8.819   6.543 -12.633 -0.01 +0.02    +0.194    12.933
ATOM      3  C   UNL d   1       8.438   7.981 -12.277 +0.00 +0.02    +0.194    12.933
ATOM      4  C   UNL d   1       7.577   8.082 -11.020 -0.02 +0.04    +0.194    12.933
ATOM      5  C   UNL d   1       6.405   7.108 -10.991 -0.05 +0.04    +0.194    12.933
ATOM      6  C   UNL d   1       6.775   5.682 -11.407 -0.07 +0.03    +0.194    12.933
ATOM      7  O   UNL d   1       8.046   4.285 -12.863 -0.04 -0.04    -0.278    12.933
ATOM      8  P   UNL d   1       8.049   3.325 -11.586 -0.15 +0.08    +0.473    12.933
ATOM      9  O   UNL d   1       8.410   3.983 -10.302 -0.18 -0.06    -0.228    12.933
ATOM     10  O   UNL d   1       6.586   2.688 -11.577 -0.13 -0.04    -0.303    12.933
ATOM     11  H   UNL d   1       5.965   3.292 -12.025 +0.10 +0.04    +0.222    12.933
ATOM     12  O   UNL d   1       8.949   2.084 -12.006 -0.22 -0.05    -0.303    12.933
ATOM     13  H   UNL d   1       9.871   2.145 -11.670 +0.08 +0.04    +0.222    12.933
ATOM     14  O   UNL d   1       9.717   6.047 -11.631 -0.01 -0.03    -0.278    12.933
ATOM     15  P   UNL d   1      11.111   5.454 -12.150 -0.00 +0.05    +0.473    12.933
ATOM     16  O   UNL d   1      11.723   6.121 -13.342 -0.00 -0.02    -0.228    12.933
ATOM     17  O   UNL d   1      12.053   5.500 -10.866 -0.01 -0.03    -0.303    12.933
ATOM     18  H   UNL d   1      12.940   5.839 -11.092 +0.01 +0.02    +0.222    12.933
ATOM     19  O   UNL d   1      10.848   3.893 -12.297 -0.03 -0.04    -0.303    12.933
ATOM     20  H   UNL d   1      10.118   3.707 -12.917 +0.04 +0.03    +0.222    12.933
ATOM     21  O   UNL d   1       5.551   4.997 -11.660 -0.07 -0.05    -0.278    12.933
ATOM     22  P   UNL d   1       4.768   5.252 -13.027 -0.04 +0.07    +0.473    12.933
ATOM     23  O   UNL d   1       4.926   6.577 -13.692 -0.02 -0.03    -0.228    12.933
ATOM     24  O   UNL d   1       5.228   4.006 -13.903 -0.05 -0.05    -0.303    12.933
ATOM     25  H   UNL d   1       6.067   3.649 -13.515 +0.06 +0.04    +0.222    12.933
ATOM     26  O   UNL d   1       3.271   4.840 -12.626 -0.33 -0.06    -0.303    12.933
ATOM     27  H   UNL d   1       2.685   5.617 -12.731 +0.04 +0.04    +0.222    12.933
ATOM     28  O   UNL d   1       9.638   8.679 -11.968 +0.00 -0.03    -0.278    12.933
ATOM     29  P   UNL d   1      10.288   9.671 -13.031 +0.00 +0.03    +0.473    12.933
ATOM     30  O   UNL d   1       9.415  10.048 -14.173 +0.00 -0.01    -0.228    12.933
ATOM     31  O   UNL d   1      10.761  10.851 -12.059 +0.00 -0.02    -0.303    12.933
ATOM     32  H   UNL d   1      10.045  11.026 -11.406 +0.00 +0.02    +0.222    12.933
ATOM     33  O   UNL d   1      11.655   8.935 -13.383 +0.00 -0.02    -0.303    12.933
ATOM     34  H   UNL d   1      11.541   7.963 -13.246 +0.00 +0.01    +0.222    12.933
ATOM     35  O   UNL d   1       5.982   7.052  -9.631 -0.15 -0.11    -0.278    12.933
ATOM     36  P   UNL d   1       7.054   6.884  -8.461 -0.15 +0.24    +0.473    12.933
ATOM     37  O   UNL d   1       8.193   5.962  -8.758 -0.17 -0.06    -0.228    12.933
ATOM     38  O   UNL d   1       7.485   8.393  -8.195 -0.11 -0.23    -0.303    12.933
ATOM     39  H   UNL d   1       7.326   8.921  -9.007 +0.04 +0.12    +0.222    12.933
ATOM     40  O   UNL d   1       6.139   6.521  -7.212 -0.90 -0.22    -0.303    12.933
ATOM     41  H   UNL d   1       6.534   5.805  -6.667 -0.46 +0.03    +0.222    12.933
ATOM     42  O   UNL d   1       7.026   9.403 -10.999 -0.02 -0.06    -0.278    12.933
ATOM     43  P   UNL d   1       7.895  10.591 -10.384 +0.00 +0.09    +0.473    12.933
ATOM     44  O   UNL d   1       8.194  11.752 -11.268 +0.00 -0.02    -0.228    12.933
ATOM     45  O   UNL d   1       7.087  10.967  -9.066 -0.08 -0.13    -0.303    12.933
ATOM     46  H   UNL d   1       7.496  10.571  -8.270 +0.02 +0.14    +0.222    12.933
ATOM     47  O   UNL d   1       9.172   9.835  -9.779 -0.00 -0.06    -0.303    12.933
ATOM     48  H   UNL d   1       9.828   9.687 -10.492 +0.01 +0.03    +0.222    12.933
TER
ENDMDL
MODEL       76
USER    Run = 76
USER    Cluster Rank = 77
USER    Number of conformations in this cluster = 1
USER  
USER    RMSD from reference structure       = 10.961 A
USER  
USER    Estimated Free Energy of Binding    =   +3.97 kcal/mol  [=(1)+(2)+(3)-(4)]
USER    
USER    (1) Final Intermolecular Energy     =   -3.19 kcal/mol
USER        vdW + Hbond + desolv Energy     =   -3.10 kcal/mol
USER        Electrostatic Energy            =   -0.09 kcal/mol
USER    (2) Final Total Internal Energy     =  -15.44 kcal/mol
USER    (3) Torsional Free Energy           =   +7.16 kcal/mol
USER    (4) Unbound System's Energy  [=(2)] =  -15.44 kcal/mol
USER    
USER    
USER  
USER    DPF = D:/Protein_go_brrr/autodock/final/mut_D99N/IHP/dock.dpf
USER    NEWDPF move	IHP_ideal_opt.pdbqt
USER    NEWDPF about	0.035000 0.082000 -0.065000
USER    NEWDPF tran0	-10.734061 -7.643208 5.431346
USER    NEWDPF axisangle0	0.539160 0.716741 0.442255 151.417073
USER    NEWDPF quaternion0	0.522474 0.694560 0.428568 0.246855
USER    NEWDPF dihe0	81.12 147.66 150.55 6.44 121.92 119.21 -62.84 -6.71 -5.36 100.27 87.87 -102.59 143.26 -178.10 -176.90 6.69 -56.98 99.41 -14.98 7.80 1.82 -8.51 169.31 9.98 
USER  
USER                              x       y       z    vdW   Elec        q     RMS 
ATOM      1  C   UNL d   1     -11.900  -6.401   5.719 -0.11 +0.10    +0.194    10.961
ATOM      2  C   UNL d   1     -12.277  -7.427   4.649 -0.09 +0.07    +0.194    10.961
ATOM      3  C   UNL d   1     -11.096  -7.751   3.732 -0.12 +0.05    +0.194    10.961
ATOM      4  C   UNL d   1      -9.835  -8.149   4.494 -0.16 +0.04    +0.194    10.961
ATOM      5  C   UNL d   1      -9.484  -7.215   5.645 -0.17 +0.06    +0.194    10.961
ATOM      6  C   UNL d   1     -10.678  -6.842   6.526 -0.15 +0.06    +0.194    10.961
ATOM      7  O   UNL d   1     -12.994  -6.284   6.631 -0.06 -0.13    -0.278    10.961
ATOM      8  P   UNL d   1     -13.416  -4.825   7.128 -0.06 +0.30    +0.473    10.961
ATOM      9  O   UNL d   1     -14.311  -4.798   8.316 -0.01 -0.08    -0.228    10.961
ATOM     10  O   UNL d   1     -12.025  -4.083   7.371 -0.13 -0.20    -0.303    10.961
ATOM     11  H   UNL d   1     -11.632  -4.392   8.209 +0.07 +0.09    +0.222    10.961
ATOM     12  O   UNL d   1     -13.963  -4.089   5.830 -0.58 -0.49    -0.303    10.961
ATOM     13  H   UNL d   1     -14.945  -4.046   5.797 +0.01 +0.24    +0.222    10.961
ATOM     14  O   UNL d   1     -12.702  -8.636   5.291 -0.02 -0.06    -0.278    10.961
ATOM     15  P   UNL d   1     -13.965  -9.382   4.649 +0.00 +0.06    +0.473    10.961
ATOM     16  O   UNL d   1     -15.138  -9.612   5.549 -0.00 -0.03    -0.228    10.961
ATOM     17  O   UNL d   1     -14.330  -8.499   3.374 -0.00 -0.05    -0.303    10.961
ATOM     18  H   UNL d   1     -13.556  -8.394   2.787 +0.02 +0.04    +0.222    10.961
ATOM     19  O   UNL d   1     -13.354 -10.685   3.972 -0.00 -0.02    -0.303    10.961
ATOM     20  H   UNL d   1     -12.624 -10.467   3.364 +0.01 +0.01    +0.222    10.961
ATOM     21  O   UNL d   1     -10.275  -5.727   7.317 -0.19 -0.09    -0.278    10.961
ATOM     22  P   UNL d   1      -9.830  -5.951   8.833 -0.15 +0.10    +0.473    10.961
ATOM     23  O   UNL d   1     -10.133  -4.876   9.822 -0.17 -0.05    -0.228    10.961
ATOM     24  O   UNL d   1     -10.488  -7.363   9.160 -0.04 -0.07    -0.303    10.961
ATOM     25  H   UNL d   1     -10.164  -8.016   8.490 +0.06 +0.05    +0.222    10.961
ATOM     26  O   UNL d   1      -8.284  -6.337   8.665 -0.30 -0.04    -0.303    10.961
ATOM     27  H   UNL d   1      -8.206  -7.095   8.051 +0.08 +0.06    +0.222    10.961
ATOM     28  O   UNL d   1     -11.450  -8.895   2.965 -0.02 -0.02    -0.278    10.961
ATOM     29  P   UNL d   1     -11.912  -8.735   1.449 +0.00 -0.00    +0.473    10.961
ATOM     30  O   UNL d   1     -12.368  -7.376   1.058 -0.04 -0.03    -0.228    10.961
ATOM     31  O   UNL d   1     -10.620  -9.311   0.701 -0.04 +0.08    -0.303    10.961
ATOM     32  H   UNL d   1      -9.894  -9.409   1.359 +0.06 -0.05    +0.222    10.961
ATOM     33  O   UNL d   1     -12.965  -9.919   1.294 +0.00 +0.01    -0.303    10.961
ATOM     34  H   UNL d   1     -13.633  -9.852   2.020 +0.01 +0.01    +0.222    10.961
ATOM     35  O   UNL d   1      -8.567  -7.938   6.465 -0.24 -0.07    -0.278    10.961
ATOM     36  P   UNL d   1      -9.002  -9.319   7.133 -0.07 +0.15    +0.473    10.961
ATOM     37  O   UNL d   1     -10.465  -9.626   7.086 -0.03 -0.05    -0.228    10.961
ATOM     38  O   UNL d   1      -8.089 -10.362   6.349 -0.09 -0.10    -0.303    10.961
ATOM     39  H   UNL d   1      -8.455 -10.496   5.448 +0.06 +0.04    +0.222    10.961
ATOM     40  O   UNL d   1      -8.330  -9.228   8.572 +0.05 -0.18    -0.303    10.961
ATOM     41  H   UNL d   1      -8.644  -8.441   9.071 +0.06 +0.10    +0.222    10.961
ATOM     42  O   UNL d   1      -8.751  -8.093   3.561 -0.22 -0.02    -0.278    10.961
ATOM     43  P   UNL d   1      -8.211  -9.451   2.922 -0.10 -0.02    +0.473    10.961
ATOM     44  O   UNL d   1      -7.736  -9.405   1.511 -0.20 +0.05    -0.228    10.961
ATOM     45  O   UNL d   1      -7.103  -9.912   3.967 -0.13 -0.01    -0.303    10.961
ATOM     46  H   UNL d   1      -7.182  -9.425   4.811 +0.10 +0.02    +0.222    10.961
ATOM     47  O   UNL d   1      -9.394 -10.491   3.220 -0.02 +0.01    -0.303    10.961
ATOM     48  H   UNL d   1     -10.131 -10.329   2.597 +0.04 -0.02    +0.222    10.961
TER
ENDMDL
MODEL       90
USER    Run = 90
USER    Cluster Rank = 78
USER    Number of conformations in this cluster = 1
USER  
USER    RMSD from reference structure       = 18.235 A
USER  
USER    Estimated Free Energy of Binding    =   +4.03 kcal/mol  [=(1)+(2)+(3)-(4)]
USER    
USER    (1) Final Intermolecular Energy     =   -3.13 kcal/mol
USER        vdW + Hbond + desolv Energy     =   -3.00 kcal/mol
USER        Electrostatic Energy            =   -0.13 kcal/mol
USER    (2) Final Total Internal Energy     =  -13.99 kcal/mol
USER    (3) Torsional Free Energy           =   +7.16 kcal/mol
USER    (4) Unbound System's Energy  [=(2)] =  -13.99 kcal/mol
USER    
USER    
USER  
USER    DPF = D:/Protein_go_brrr/autodock/final/mut_D99N/IHP/dock.dpf
USER    NEWDPF move	IHP_ideal_opt.pdbqt
USER    NEWDPF about	0.035000 0.082000 -0.065000
USER    NEWDPF tran0	-6.893194 15.636214 -13.151095
USER    NEWDPF axisangle0	-0.467438 -0.097094 0.878678 -120.188194
USER    NEWDPF quaternion0	-0.405196 -0.084166 0.761678 -0.498577
USER    NEWDPF dihe0	104.48 11.18 23.98 121.56 88.68 145.75 -89.52 -14.19 147.23 91.37 -125.97 -168.06 166.87 -63.68 48.60 163.39 76.38 158.57 59.39 16.79 -171.07 18.73 19.30 -175.39 
USER  
USER                              x       y       z    vdW   Elec        q     RMS 
ATOM      1  C   UNL d   1      -7.053  17.325 -12.827 +0.00 -0.01    +0.194    18.235
ATOM      2  C   UNL d   1      -6.020  16.584 -11.976 -0.00 -0.01    +0.194    18.235
ATOM      3  C   UNL d   1      -6.550  15.232 -11.493 -0.03 -0.01    +0.194    18.235
ATOM      4  C   UNL d   1      -7.099  14.363 -12.622 -0.09 -0.02    +0.194    18.235
ATOM      5  C   UNL d   1      -8.046  15.095 -13.565 -0.06 -0.02    +0.194    18.235
ATOM      6  C   UNL d   1      -7.543  16.474 -13.998 -0.01 -0.01    +0.194    18.235
ATOM      7  O   UNL d   1      -6.426  18.487 -13.377 +0.00 +0.01    -0.278    18.235
ATOM      8  P   UNL d   1      -5.900  19.613 -12.373 +0.00 -0.01    +0.473    18.235
ATOM      9  O   UNL d   1      -6.100  21.013 -12.836 +0.00 +0.00    -0.228    18.235
ATOM     10  O   UNL d   1      -6.652  19.291 -11.003 +0.00 +0.00    -0.303    18.235
ATOM     11  H   UNL d   1      -7.613  19.239 -11.162 +0.00 -0.00    +0.222    18.235
ATOM     12  O   UNL d   1      -4.404  19.200 -12.036 +0.00 +0.00    -0.303    18.235
ATOM     13  H   UNL d   1      -4.269  18.226 -12.006 +0.00 -0.00    +0.222    18.235
ATOM     14  O   UNL d   1      -4.843  16.358 -12.761 -0.00 +0.01    -0.278    18.235
ATOM     15  P   UNL d   1      -3.449  16.343 -11.973 +0.01 -0.01    +0.473    18.235
ATOM     16  O   UNL d   1      -3.487  16.751 -10.533 -0.01 +0.00    -0.228    18.235
ATOM     17  O   UNL d   1      -2.902  14.862 -12.181 -0.00 +0.01    -0.303    18.235
ATOM     18  H   UNL d   1      -3.422  14.219 -11.661 +0.04 -0.01    +0.222    18.235
ATOM     19  O   UNL d   1      -2.462  17.181 -12.897 +0.00 +0.01    -0.303    18.235
ATOM     20  H   UNL d   1      -2.763  18.102 -13.005 +0.00 -0.00    +0.222    18.235
ATOM     21  O   UNL d   1      -8.656  17.156 -14.573 -0.00 +0.02    -0.278    18.235
ATOM     22  P   UNL d   1      -9.651  17.979 -13.636 +0.00 -0.03    +0.473    18.235
ATOM     23  O   UNL d   1      -9.225  19.331 -13.173 -0.00 +0.01    -0.228    18.235
ATOM     24  O   UNL d   1     -10.994  17.958 -14.490 +0.00 +0.03    -0.303    18.235
ATOM     25  H   UNL d   1     -10.953  17.187 -15.111 +0.01 -0.03    +0.222    18.235
ATOM     26  O   UNL d   1      -9.973  16.911 -12.486 -0.00 +0.03    -0.303    18.235
ATOM     27  H   UNL d   1      -9.895  16.007 -12.854 +0.03 -0.03    +0.222    18.235
ATOM     28  O   UNL d   1      -5.450  14.506 -10.960 -0.04 +0.01    -0.278    18.235
ATOM     29  P   UNL d   1      -5.547  13.845  -9.514 -0.12 -0.01    +0.473    18.235
ATOM     30  O   UNL d   1      -4.989  12.473  -9.398 -0.18 -0.01    -0.228    18.235
ATOM     31  O   UNL d   1      -4.851  14.989  -8.637 -0.13 +0.01    -0.303    18.235
ATOM     32  H   UNL d   1      -4.102  15.368  -9.152 +0.05 -0.01    +0.222    18.235
ATOM     33  O   UNL d   1      -7.090  14.026  -9.167 -0.13 -0.00    -0.303    18.235
ATOM     34  H   UNL d   1      -7.629  13.775  -9.957 +0.09 -0.01    +0.222    18.235
ATOM     35  O   UNL d   1      -8.124  14.289 -14.738 -0.16 +0.04    -0.278    18.235
ATOM     36  P   UNL d   1      -9.454  14.276 -15.618 -0.11 -0.11    +0.473    18.235
ATOM     37  O   UNL d   1      -9.289  14.703 -17.042 -0.05 +0.04    -0.228    18.235
ATOM     38  O   UNL d   1      -9.950  12.774 -15.439 -0.65 +0.14    -0.303    18.235
ATOM     39  H   UNL d   1     -10.370  12.677 -14.557 -0.52 -0.19    +0.222    18.235
ATOM     40  O   UNL d   1     -10.462  15.121 -14.724 -0.04 +0.07    -0.303    18.235
ATOM     41  H   UNL d   1     -10.065  15.972 -14.432 +0.03 -0.04    +0.222    18.235
ATOM     42  O   UNL d   1      -7.849  13.309 -12.008 -0.17 +0.05    -0.278    18.235
ATOM     43  P   UNL d   1      -9.269  13.647 -11.365 -0.12 -0.10    +0.473    18.235
ATOM     44  O   UNL d   1      -9.768  12.745 -10.290 -0.24 +0.03    -0.228    18.235
ATOM     45  O   UNL d   1      -9.098  15.164 -10.915 -0.03 +0.03    -0.303    18.235
ATOM     46  H   UNL d   1      -9.964  15.597 -10.779 +0.03 -0.02    +0.222    18.235
ATOM     47  O   UNL d   1     -10.224  13.793 -12.644 -0.10 +0.13    -0.303    18.235
ATOM     48  H   UNL d   1      -9.750  13.473 -13.440 -0.30 -0.12    +0.222    18.235
TER
ENDMDL
MODEL       64
USER    Run = 64
USER    Cluster Rank = 79
USER    Number of conformations in this cluster = 1
USER  
USER    RMSD from reference structure       = 13.808 A
USER  
USER    Estimated Free Energy of Binding    =   +4.10 kcal/mol  [=(1)+(2)+(3)-(4)]
USER    
USER    (1) Final Intermolecular Energy     =   -3.06 kcal/mol
USER        vdW + Hbond + desolv Energy     =   -2.91 kcal/mol
USER        Electrostatic Energy            =   -0.16 kcal/mol
USER    (2) Final Total Internal Energy     =  -13.53 kcal/mol
USER    (3) Torsional Free Energy           =   +7.16 kcal/mol
USER    (4) Unbound System's Energy  [=(2)] =  -13.53 kcal/mol
USER    
USER    
USER  
USER    DPF = D:/Protein_go_brrr/autodock/final/mut_D99N/IHP/dock.dpf
USER    NEWDPF move	IHP_ideal_opt.pdbqt
USER    NEWDPF about	0.035000 0.082000 -0.065000
USER    NEWDPF tran0	-13.902384 -3.446701 9.268907
USER    NEWDPF axisangle0	-0.537819 0.622074 -0.569012 -172.912819
USER    NEWDPF quaternion0	-0.536791 0.620885 -0.567924 -0.061808
USER    NEWDPF dihe0	81.49 49.67 45.12 79.35 107.10 138.21 -128.02 -21.04 56.20 109.41 -164.94 173.24 -30.98 121.83 57.10 -165.96 -81.34 85.41 14.05 -15.76 -27.12 4.22 -180.00 15.84 
USER  
USER                              x       y       z    vdW   Elec        q     RMS 
ATOM      1  C   UNL d   1     -13.351  -4.679  10.347 -0.01 +0.04    +0.194    13.808
ATOM      2  C   UNL d   1     -12.606  -3.345  10.431 -0.04 +0.05    +0.194    13.808
ATOM      3  C   UNL d   1     -12.314  -2.772   9.042 -0.08 +0.07    +0.194    13.808
ATOM      4  C   UNL d   1     -13.553  -2.686   8.154 -0.06 +0.10    +0.194    13.808
ATOM      5  C   UNL d   1     -14.390  -3.958   8.132 -0.03 +0.08    +0.194    13.808
ATOM      6  C   UNL d   1     -14.630  -4.566   9.516 -0.00 +0.05    +0.194    13.808
ATOM      7  O   UNL d   1     -13.736  -5.058  11.671 -0.00 -0.05    -0.278    13.808
ATOM      8  P   UNL d   1     -12.977  -6.284  12.360 -0.00 +0.06    +0.473    13.808
ATOM      9  O   UNL d   1     -11.646  -6.609  11.778 -0.02 -0.04    -0.228    13.808
ATOM     10  O   UNL d   1     -12.906  -5.877  13.901 -0.00 -0.04    -0.303    13.808
ATOM     11  H   UNL d   1     -12.212  -5.204  14.030 +0.02 +0.03    +0.222    13.808
ATOM     12  O   UNL d   1     -14.035  -7.468  12.376 -0.00 -0.03    -0.303    13.808
ATOM     13  H   UNL d   1     -14.875  -7.242  11.916 +0.00 +0.02    +0.222    13.808
ATOM     14  O   UNL d   1     -13.410  -2.405  11.153 -0.01 -0.07    -0.278    13.808
ATOM     15  P   UNL d   1     -12.819  -1.878  12.545 -0.03 +0.13    +0.473    13.808
ATOM     16  O   UNL d   1     -13.627  -0.850  13.272 -0.06 -0.08    -0.228    13.808
ATOM     17  O   UNL d   1     -12.596  -3.205  13.398 -0.02 -0.06    -0.303    13.808
ATOM     18  H   UNL d   1     -13.400  -3.759  13.404 +0.02 +0.04    +0.222    13.808
ATOM     19  O   UNL d   1     -11.322  -1.460  12.207 -0.15 -0.09    -0.303    13.808
ATOM     20  H   UNL d   1     -11.195  -1.316  11.251 +0.10 +0.06    +0.222    13.808
ATOM     21  O   UNL d   1     -15.110  -5.892   9.306 +0.00 -0.05    -0.278    13.808
ATOM     22  P   UNL d   1     -16.436  -6.380  10.047 +0.00 +0.06    +0.473    13.808
ATOM     23  O   UNL d   1     -17.749  -6.118   9.389 +0.00 -0.03    -0.228    13.808
ATOM     24  O   UNL d   1     -16.116  -7.917  10.308 +0.00 -0.03    -0.303    13.808
ATOM     25  H   UNL d   1     -15.169  -7.991  10.591 +0.00 +0.02    +0.222    13.808
ATOM     26  O   UNL d   1     -16.244  -5.749  11.508 +0.00 -0.04    -0.303    13.808
ATOM     27  H   UNL d   1     -15.295  -5.777  11.748 +0.00 +0.03    +0.222    13.808
ATOM     28  O   UNL d   1     -11.880  -1.429   9.216 -0.10 -0.10    -0.278    13.808
ATOM     29  P   UNL d   1     -10.394  -1.006   8.829 -0.20 +0.18    +0.473    13.808
ATOM     30  O   UNL d   1     -10.134   0.456   8.789 -0.40 -0.08    -0.228    13.808
ATOM     31  O   UNL d   1      -9.572  -1.862   9.903 -0.28 -0.07    -0.303    13.808
ATOM     32  H   UNL d   1      -9.643  -1.417  10.779 +0.09 +0.05    +0.222    13.808
ATOM     33  O   UNL d   1     -10.158  -1.817   7.479 -0.62 -0.18    -0.303    13.808
ATOM     34  H   UNL d   1     -10.995  -1.815   6.953 +0.08 +0.19    +0.222    13.808
ATOM     35  O   UNL d   1     -15.663  -3.575   7.616 -0.01 -0.12    -0.278    13.808
ATOM     36  P   UNL d   1     -16.428  -2.311   8.217 +0.01 +0.14    +0.473    13.808
ATOM     37  O   UNL d   1     -16.290  -2.116   9.693 +0.00 -0.05    -0.228    13.808
ATOM     38  O   UNL d   1     -15.832  -1.123   7.340 +0.00 -0.13    -0.303    13.808
ATOM     39  H   UNL d   1     -15.037  -1.443   6.862 +0.02 +0.15    +0.222    13.808
ATOM     40  O   UNL d   1     -17.901  -2.504   7.649 +0.00 -0.07    -0.303    13.808
ATOM     41  H   UNL d   1     -18.344  -3.288   8.044 +0.00 +0.04    +0.222    13.808
ATOM     42  O   UNL d   1     -13.090  -2.463   6.818 -0.36 -0.33    -0.278    13.808
ATOM     43  P   UNL d   1     -13.018  -0.968   6.266 -0.05 +0.57    +0.473    13.808
ATOM     44  O   UNL d   1     -11.754  -0.541   5.604 -0.67 -0.30    -0.228    13.808
ATOM     45  O   UNL d   1     -14.304  -0.877   5.334 -0.09 -0.43    -0.303    13.808
ATOM     46  H   UNL d   1     -14.902  -0.157   5.619 +0.03 +0.17    +0.222    13.808
ATOM     47  O   UNL d   1     -13.468  -0.089   7.529 -0.04 -0.15    -0.303    13.808
ATOM     48  H   UNL d   1     -13.781  -0.685   8.241 +0.04 +0.10    +0.222    13.808
TER
ENDMDL
MODEL       99
USER    Run = 99
USER    Cluster Rank = 80
USER    Number of conformations in this cluster = 1
USER  
USER    RMSD from reference structure       = 14.469 A
USER  
USER    Estimated Free Energy of Binding    =   +4.23 kcal/mol  [=(1)+(2)+(3)-(4)]
USER    
USER    (1) Final Intermolecular Energy     =   -2.93 kcal/mol
USER        vdW + Hbond + desolv Energy     =   -2.73 kcal/mol
USER        Electrostatic Energy            =   -0.19 kcal/mol
USER    (2) Final Total Internal Energy     =  -12.15 kcal/mol
USER    (3) Torsional Free Energy           =   +7.16 kcal/mol
USER    (4) Unbound System's Energy  [=(2)] =  -12.15 kcal/mol
USER    
USER    
USER  
USER    DPF = D:/Protein_go_brrr/autodock/final/mut_D99N/IHP/dock.dpf
USER    NEWDPF move	IHP_ideal_opt.pdbqt
USER    NEWDPF about	0.035000 0.082000 -0.065000
USER    NEWDPF tran0	6.361539 16.515017 -1.360040
USER    NEWDPF axisangle0	-0.627710 0.310550 0.713820 -171.416955
USER    NEWDPF quaternion0	-0.625950 0.309680 0.711818 -0.074831
USER    NEWDPF dihe0	73.96 167.70 -179.80 -8.67 179.99 -149.75 -20.91 -126.77 124.69 124.88 0.58 -136.21 -179.94 176.22 -30.36 103.05 56.13 -15.03 -27.12 18.82 -6.96 9.34 180.00 -3.09 
USER  
USER                              x       y       z    vdW   Elec        q     RMS 
ATOM      1  C   UNL d   1       5.875  17.293  -2.824 -0.01 +0.00    +0.194    14.469
ATOM      2  C   UNL d   1       6.840  18.088  -1.942 -0.01 +0.00    +0.194    14.469
ATOM      3  C   UNL d   1       6.456  18.004  -0.463 -0.03 +0.00    +0.194    14.469
ATOM      4  C   UNL d   1       6.270  16.571   0.030 -0.10 +0.01    +0.194    14.469
ATOM      5  C   UNL d   1       5.407  15.708  -0.881 -0.14 +0.01    +0.194    14.469
ATOM      6  C   UNL d   1       5.751  15.839  -2.367 -0.05 +0.01    +0.194    14.469
ATOM      7  O   UNL d   1       6.396  17.279  -4.155 +0.00 -0.01    -0.278    14.469
ATOM      8  P   UNL d   1       5.366  17.208  -5.373 +0.02 -0.00    +0.473    14.469
ATOM      9  O   UNL d   1       5.636  16.133  -6.367 -0.01 +0.00    -0.228    14.469
ATOM     10  O   UNL d   1       3.942  17.066  -4.667 -0.01 +0.01    -0.303    14.469
ATOM     11  H   UNL d   1       3.775  16.130  -4.451 +0.04 -0.02    +0.222    14.469
ATOM     12  O   UNL d   1       5.305  18.687  -5.950 +0.00 +0.00    -0.303    14.469
ATOM     13  H   UNL d   1       5.545  18.739  -6.902 +0.00 +0.00    +0.222    14.469
ATOM     14  O   UNL d   1       8.162  17.558  -2.101 -0.00 -0.01    -0.278    14.469
ATOM     15  P   UNL d   1       9.374  18.586  -1.906 +0.00 +0.01    +0.473    14.469
ATOM     16  O   UNL d   1      10.393  18.639  -3.002 +0.00 -0.01    -0.228    14.469
ATOM     17  O   UNL d   1       8.657  19.988  -1.662 -0.00 -0.01    -0.303    14.469
ATOM     18  H   UNL d   1       8.412  20.098  -0.723 +0.00 +0.00    +0.222    14.469
ATOM     19  O   UNL d   1       9.942  18.260  -0.457 +0.00 -0.01    -0.303    14.469
ATOM     20  H   UNL d   1       9.310  18.510   0.243 +0.00 +0.00    +0.222    14.469
ATOM     21  O   UNL d   1       4.667  15.264  -3.093 -0.06 +0.00    -0.278    14.469
ATOM     22  P   UNL d   1       4.872  13.878  -3.855 -0.07 -0.00    +0.473    14.469
ATOM     23  O   UNL d   1       6.212  13.225  -3.784 -0.32 -0.08    -0.228    14.469
ATOM     24  O   UNL d   1       3.674  13.006  -3.275 -0.20 +0.08    -0.303    14.469
ATOM     25  H   UNL d   1       3.043  12.818  -4.015 -0.49 -0.25    +0.222    14.469
ATOM     26  O   UNL d   1       4.341  14.233  -5.326 -0.18 +0.10    -0.303    14.469
ATOM     27  H   UNL d   1       4.588  15.155  -5.543 +0.03 -0.03    +0.222    14.469
ATOM     28  O   UNL d   1       7.543  18.525   0.292 -0.01 -0.01    -0.278    14.469
ATOM     29  P   UNL d   1       7.333  19.789   1.237 -0.00 +0.01    +0.473    14.469
ATOM     30  O   UNL d   1       6.651  19.517   2.529 -0.02 -0.00    -0.228    14.469
ATOM     31  O   UNL d   1       8.835  20.336   1.310 -0.00 -0.00    -0.303    14.469
ATOM     32  H   UNL d   1       9.290  20.118   0.464 +0.00 +0.00    +0.222    14.469
ATOM     33  O   UNL d   1       6.628  20.826   0.256 -0.00 -0.00    -0.303    14.469
ATOM     34  H   UNL d   1       7.275  21.101  -0.439 +0.00 +0.00    +0.222    14.469
ATOM     35  O   UNL d   1       5.676  14.359  -0.506 -0.19 -0.02    -0.278    14.469
ATOM     36  P   UNL d   1       7.180  13.846  -0.369 -0.08 +0.06    +0.473    14.469
ATOM     37  O   UNL d   1       7.712  13.772   1.027 -0.16 -0.02    -0.228    14.469
ATOM     38  O   UNL d   1       7.115  12.443  -1.120 -0.28 -0.08    -0.303    14.469
ATOM     39  H   UNL d   1       6.756  12.579  -2.023 +0.08 +0.05    +0.222    14.469
ATOM     40  O   UNL d   1       7.955  14.790  -1.388 -0.02 -0.03    -0.303    14.469
ATOM     41  H   UNL d   1       8.184  15.655  -0.981 +0.02 +0.01    +0.222    14.469
ATOM     42  O   UNL d   1       5.601  16.650   1.293 -0.13 -0.01    -0.278    14.469
ATOM     43  P   UNL d   1       6.374  16.180   2.606 -0.12 +0.00    +0.473    14.469
ATOM     44  O   UNL d   1       7.854  16.348   2.629 -0.05 -0.00    -0.228    14.469
ATOM     45  O   UNL d   1       5.613  16.968   3.760 -0.12 +0.00    -0.303    14.469
ATOM     46  H   UNL d   1       5.828  17.922   3.745 +0.05 +0.00    +0.222    14.469
ATOM     47  O   UNL d   1       5.844  14.684   2.828 -0.24 +0.01    -0.303    14.469
ATOM     48  H   UNL d   1       5.815  14.221   1.966 +0.10 +0.01    +0.222    14.469
TER
ENDMDL
MODEL       25
USER    Run = 25
USER    Cluster Rank = 81
USER    Number of conformations in this cluster = 1
USER  
USER    RMSD from reference structure       = 25.680 A
USER  
USER    Estimated Free Energy of Binding    =   +4.30 kcal/mol  [=(1)+(2)+(3)-(4)]
USER    
USER    (1) Final Intermolecular Energy     =   -2.86 kcal/mol
USER        vdW + Hbond + desolv Energy     =   -2.57 kcal/mol
USER        Electrostatic Energy            =   -0.29 kcal/mol
USER    (2) Final Total Internal Energy     =  -12.29 kcal/mol
USER    (3) Torsional Free Energy           =   +7.16 kcal/mol
USER    (4) Unbound System's Energy  [=(2)] =  -12.29 kcal/mol
USER    
USER    
USER  
USER    DPF = D:/Protein_go_brrr/autodock/final/mut_D99N/IHP/dock.dpf
USER    NEWDPF move	IHP_ideal_opt.pdbqt
USER    NEWDPF about	0.035000 0.082000 -0.065000
USER    NEWDPF tran0	16.521329 -10.351011 -20.463258
USER    NEWDPF axisangle0	0.208290 0.297829 0.931619 162.198212
USER    NEWDPF quaternion0	0.205781 0.294242 0.920400 0.154726
USER    NEWDPF dihe0	74.79 71.31 162.68 40.49 86.54 177.77 153.57 25.79 93.63 90.52 123.07 99.58 148.07 -161.15 -18.70 23.32 50.40 84.35 -140.66 -24.40 168.01 -40.14 10.11 -38.80 
USER  
USER                              x       y       z    vdW   Elec        q     RMS 
ATOM      1  C   UNL d   1      15.302  -9.386 -19.712 -0.05 -0.04    +0.194    25.680
ATOM      2  C   UNL d   1      15.952  -8.778 -20.956 -0.01 -0.02    +0.194    25.680
ATOM      3  C   UNL d   1      17.469  -8.977 -20.957 +0.00 -0.02    +0.194    25.680
ATOM      4  C   UNL d   1      17.886 -10.429 -20.739 +0.00 -0.02    +0.194    25.680
ATOM      5  C   UNL d   1      17.175 -11.110 -19.576 -0.02 -0.05    +0.194    25.680
ATOM      6  C   UNL d   1      15.666 -10.861 -19.541 -0.08 -0.08    +0.194    25.680
ATOM      7  O   UNL d   1      13.883  -9.313 -19.869 -0.08 +0.07    -0.278    25.680
ATOM      8  P   UNL d   1      13.112 -10.601 -20.415 -0.08 -0.18    +0.473    25.680
ATOM      9  O   UNL d   1      11.762 -10.336 -20.982 -0.14 +0.04    -0.228    25.680
ATOM     10  O   UNL d   1      14.123 -11.237 -21.473 -0.03 +0.08    -0.303    25.680
ATOM     11  H   UNL d   1      14.028 -10.782 -22.330 +0.02 -0.04    +0.222    25.680
ATOM     12  O   UNL d   1      13.171 -11.653 -19.225 -0.14 +0.38    -0.303    25.680
ATOM     13  H   UNL d   1      13.257 -11.230 -18.341 -0.33 -0.41    +0.222    25.680
ATOM     14  O   UNL d   1      15.408  -9.410 -22.122 -0.00 +0.03    -0.278    25.680
ATOM     15  P   UNL d   1      14.396  -8.536 -23.003 +0.00 -0.03    +0.473    25.680
ATOM     16  O   UNL d   1      12.944  -8.886 -22.903 -0.01 +0.02    -0.228    25.680
ATOM     17  O   UNL d   1      14.700  -7.034 -22.568 -0.00 +0.01    -0.303    25.680
ATOM     18  H   UNL d   1      15.594  -6.761 -22.851 +0.00 -0.01    +0.222    25.680
ATOM     19  O   UNL d   1      15.011  -8.575 -24.470 -0.00 +0.01    -0.303    25.680
ATOM     20  H   UNL d   1      15.953  -8.826 -24.459 +0.00 -0.01    +0.222    25.680
ATOM     21  O   UNL d   1      15.213 -11.256 -18.248 -0.17 +0.22    -0.278    25.680
ATOM     22  P   UNL d   1      15.698 -10.451 -16.958 -0.12 -0.21    +0.473    25.680
ATOM     23  O   UNL d   1      16.403  -9.153 -17.162 -0.05 +0.05    -0.228    25.680
ATOM     24  O   UNL d   1      14.356 -10.356 -16.110 -0.72 +0.15    -0.303    25.680
ATOM     25  H   UNL d   1      13.740 -11.065 -16.427 -0.37 -0.38    +0.222    25.680
ATOM     26  O   UNL d   1      16.515 -11.577 -16.161 -0.12 +0.11    -0.303    25.680
ATOM     27  H   UNL d   1      16.540 -12.397 -16.695 +0.04 -0.11    +0.222    25.680
ATOM     28  O   UNL d   1      17.944  -8.639 -22.254 -0.00 +0.01    -0.278    25.680
ATOM     29  P   UNL d   1      17.945  -7.122 -22.740 +0.00 -0.01    +0.473    25.680
ATOM     30  O   UNL d   1      17.370  -6.142 -21.784 -0.00 +0.00    -0.228    25.680
ATOM     31  O   UNL d   1      19.492  -6.950 -23.115 +0.00 +0.01    -0.303    25.680
ATOM     32  H   UNL d   1      19.728  -5.996 -23.044 +0.00 -0.00    +0.222    25.680
ATOM     33  O   UNL d   1      17.247  -7.229 -24.168 +0.00 +0.01    -0.303    25.680
ATOM     34  H   UNL d   1      16.266  -7.205 -24.048 +0.00 -0.01    +0.222    25.680
ATOM     35  O   UNL d   1      17.365 -12.510 -19.773 -0.01 +0.08    -0.278    25.680
ATOM     36  P   UNL d   1      17.650 -13.466 -18.529 -0.03 -0.15    +0.473    25.680
ATOM     37  O   UNL d   1      16.450 -14.141 -17.946 -0.12 +0.16    -0.228    25.680
ATOM     38  O   UNL d   1      18.736 -14.465 -19.128 -0.00 +0.05    -0.303    25.680
ATOM     39  H   UNL d   1      19.192 -14.031 -19.881 +0.01 -0.03    +0.222    25.680
ATOM     40  O   UNL d   1      18.490 -12.524 -17.561 -0.01 +0.06    -0.303    25.680
ATOM     41  H   UNL d   1      18.059 -11.648 -17.442 +0.02 -0.05    +0.222    25.680
ATOM     42  O   UNL d   1      19.283 -10.417 -20.429 +0.00 +0.02    -0.278    25.680
ATOM     43  P   UNL d   1      20.175 -11.674 -20.842 +0.00 -0.03    +0.473    25.680
ATOM     44  O   UNL d   1      21.440 -11.405 -21.581 +0.00 +0.01    -0.228    25.680
ATOM     45  O   UNL d   1      20.380 -12.427 -19.455 +0.00 +0.02    -0.303    25.680
ATOM     46  H   UNL d   1      19.529 -12.558 -18.990 +0.01 -0.03    +0.222    25.680
ATOM     47  O   UNL d   1      19.131 -12.636 -21.584 +0.00 +0.03    -0.303    25.680
ATOM     48  H   UNL d   1      18.624 -13.140 -20.914 +0.01 -0.03    +0.222    25.680
TER
ENDMDL
MODEL       10
USER    Run = 10
USER    Cluster Rank = 82
USER    Number of conformations in this cluster = 1
USER  
USER    RMSD from reference structure       = 17.210 A
USER  
USER    Estimated Free Energy of Binding    =   +4.32 kcal/mol  [=(1)+(2)+(3)-(4)]
USER    
USER    (1) Final Intermolecular Energy     =   -2.84 kcal/mol
USER        vdW + Hbond + desolv Energy     =   -2.79 kcal/mol
USER        Electrostatic Energy            =   -0.05 kcal/mol
USER    (2) Final Total Internal Energy     =  -14.23 kcal/mol
USER    (3) Torsional Free Energy           =   +7.16 kcal/mol
USER    (4) Unbound System's Energy  [=(2)] =  -14.23 kcal/mol
USER    
USER    
USER  
USER    DPF = D:/Protein_go_brrr/autodock/final/mut_D99N/IHP/dock.dpf
USER    NEWDPF move	IHP_ideal_opt.pdbqt
USER    NEWDPF about	0.035000 0.082000 -0.065000
USER    NEWDPF tran0	6.394543 -18.664843 0.569474
USER    NEWDPF axisangle0	0.885755 0.462333 0.041076 -95.229397
USER    NEWDPF quaternion0	0.654243 0.341492 0.030340 -0.674113
USER    NEWDPF dihe0	-108.45 41.81 67.37 13.68 -20.05 -179.96 -42.69 68.09 99.33 82.70 12.55 -110.77 -153.77 149.20 -177.15 -62.82 94.59 -72.91 36.44 -9.70 169.95 4.08 -2.95 -180.00 
USER  
USER                              x       y       z    vdW   Elec        q     RMS 
ATOM      1  C   UNL d   1       7.388 -18.861  -0.830 -0.17 +0.00    +0.194    17.210
ATOM      2  C   UNL d   1       5.923 -19.266  -0.998 -0.11 -0.00    +0.194    17.210
ATOM      3  C   UNL d   1       5.411 -20.055   0.209 -0.07 -0.01    +0.194    17.210
ATOM      4  C   UNL d   1       5.667 -19.352   1.540 -0.10 -0.02    +0.194    17.210
ATOM      5  C   UNL d   1       7.088 -18.829   1.702 -0.17 -0.01    +0.194    17.210
ATOM      6  C   UNL d   1       7.622 -18.093   0.471 -0.23 +0.00    +0.194    17.210
ATOM      7  O   UNL d   1       7.736 -17.989  -1.908 -0.23 +0.00    -0.278    17.210
ATOM      8  P   UNL d   1       8.226 -18.639  -3.283 -0.06 +0.02    +0.473    17.210
ATOM      9  O   UNL d   1       9.696 -18.605  -3.508 -0.13 -0.03    -0.228    17.210
ATOM     10  O   UNL d   1       7.631 -20.119  -3.244 -0.03 -0.01    -0.303    17.210
ATOM     11  H   UNL d   1       6.769 -20.137  -3.701 +0.04 +0.00    +0.222    17.210
ATOM     12  O   UNL d   1       7.335 -17.952  -4.405 -0.19 -0.01    -0.303    17.210
ATOM     13  H   UNL d   1       6.659 -17.338  -4.038 +0.03 -0.01    +0.222    17.210
ATOM     14  O   UNL d   1       5.125 -18.084  -1.142 -0.09 -0.01    -0.278    17.210
ATOM     15  P   UNL d   1       4.256 -17.967  -2.482 -0.10 -0.01    +0.473    17.210
ATOM     16  O   UNL d   1       3.891 -16.585  -2.927 -0.25 +0.01    -0.228    17.210
ATOM     17  O   UNL d   1       5.109 -18.760  -3.568 -0.08 +0.00    -0.303    17.210
ATOM     18  H   UNL d   1       6.062 -18.731  -3.357 +0.07 -0.00    +0.222    17.210
ATOM     19  O   UNL d   1       3.033 -18.958  -2.250 -0.03 +0.01    -0.303    17.210
ATOM     20  H   UNL d   1       3.328 -19.817  -1.896 +0.03 -0.01    +0.222    17.210
ATOM     21  O   UNL d   1       9.033 -17.976   0.641 -0.18 -0.06    -0.278    17.210
ATOM     22  P   UNL d   1       9.946 -19.284   0.599 -0.07 +0.11    +0.473    17.210
ATOM     23  O   UNL d   1      11.167 -19.318   1.455 -0.10 -0.08    -0.228    17.210
ATOM     24  O   UNL d   1       8.886 -20.431   0.901 -0.02 -0.02    -0.303    17.210
ATOM     25  H   UNL d   1       8.803 -20.523   1.885 +0.03 +0.01    +0.222    17.210
ATOM     26  O   UNL d   1      10.187 -19.462  -0.976 -0.06 -0.06    -0.303    17.210
ATOM     27  H   UNL d   1       9.805 -18.695  -1.449 +0.06 +0.04    +0.222    17.210
ATOM     28  O   UNL d   1       3.997 -20.144   0.095 -0.03 +0.01    -0.278    17.210
ATOM     29  P   UNL d   1       3.294 -21.556  -0.124 +0.00 -0.01    +0.473    17.210
ATOM     30  O   UNL d   1       3.134 -21.980  -1.539 -0.00 +0.00    -0.228    17.210
ATOM     31  O   UNL d   1       4.215 -22.474   0.809 -0.00 +0.01    -0.303    17.210
ATOM     32  H   UNL d   1       4.815 -21.891   1.329 +0.01 -0.01    +0.222    17.210
ATOM     33  O   UNL d   1       1.963 -21.404   0.736 -0.00 +0.01    -0.303    17.210
ATOM     34  H   UNL d   1       1.186 -21.628   0.168 +0.00 -0.01    +0.222    17.210
ATOM     35  O   UNL d   1       7.033 -17.881   2.767 -0.16 +0.05    -0.278    17.210
ATOM     36  P   UNL d   1       8.036 -17.998   4.001 -0.14 -0.01    +0.473    17.210
ATOM     37  O   UNL d   1       8.606 -16.706   4.494 -0.19 -0.01    -0.228    17.210
ATOM     38  O   UNL d   1       7.147 -18.772   5.072 -0.05 +0.02    -0.303    17.210
ATOM     39  H   UNL d   1       6.504 -19.346   4.601 +0.03 -0.02    +0.222    17.210
ATOM     40  O   UNL d   1       9.070 -19.097   3.496 -0.07 -0.02    -0.303    17.210
ATOM     41  H   UNL d   1       9.303 -18.969   2.550 +0.05 +0.03    +0.222    17.210
ATOM     42  O   UNL d   1       5.455 -20.323   2.570 -0.03 +0.02    -0.278    17.210
ATOM     43  P   UNL d   1       6.487 -21.531   2.714 -0.00 -0.01    +0.473    17.210
ATOM     44  O   UNL d   1       7.216 -21.962   1.489 -0.01 +0.00    -0.228    17.210
ATOM     45  O   UNL d   1       7.433 -21.043   3.897 -0.01 +0.01    -0.303    17.210
ATOM     46  H   UNL d   1       7.888 -20.207   3.670 +0.03 -0.00    +0.222    17.210
ATOM     47  O   UNL d   1       5.620 -22.668   3.439 -0.00 +0.01    -0.303    17.210
ATOM     48  H   UNL d   1       4.929 -22.988   2.823 +0.00 -0.01    +0.222    17.210
TER
ENDMDL
MODEL       50
USER    Run = 50
USER    Cluster Rank = 83
USER    Number of conformations in this cluster = 1
USER  
USER    RMSD from reference structure       = 13.580 A
USER  
USER    Estimated Free Energy of Binding    =   +4.35 kcal/mol  [=(1)+(2)+(3)-(4)]
USER    
USER    (1) Final Intermolecular Energy     =   -2.81 kcal/mol
USER        vdW + Hbond + desolv Energy     =   -2.75 kcal/mol
USER        Electrostatic Energy            =   -0.06 kcal/mol
USER    (2) Final Total Internal Energy     =  -14.46 kcal/mol
USER    (3) Torsional Free Energy           =   +7.16 kcal/mol
USER    (4) Unbound System's Energy  [=(2)] =  -14.46 kcal/mol
USER    
USER    
USER  
USER    DPF = D:/Protein_go_brrr/autodock/final/mut_D99N/IHP/dock.dpf
USER    NEWDPF move	IHP_ideal_opt.pdbqt
USER    NEWDPF about	0.035000 0.082000 -0.065000
USER    NEWDPF tran0	-10.587628 -9.910835 9.267832
USER    NEWDPF axisangle0	0.060632 0.601903 0.796264 149.719692
USER    NEWDPF quaternion0	0.058528 0.581011 0.768626 0.261181
USER    NEWDPF dihe0	141.34 179.99 140.86 -24.00 162.78 91.49 -160.93 -78.59 124.54 79.69 33.21 -69.99 -87.67 -180.00 -142.33 -146.91 105.49 -64.63 52.35 9.23 6.23 -6.03 -16.30 166.42 
USER  
USER                              x       y       z    vdW   Elec        q     RMS 
ATOM      1  C   UNL d   1     -12.247  -9.431   9.246 -0.01 +0.03    +0.194    13.580
ATOM      2  C   UNL d   1     -11.476  -9.204   7.944 -0.02 +0.04    +0.194    13.580
ATOM      3  C   UNL d   1     -10.082  -8.629   8.204 -0.08 +0.05    +0.194    13.580
ATOM      4  C   UNL d   1      -9.277  -9.438   9.218 -0.09 +0.08    +0.194    13.580
ATOM      5  C   UNL d   1     -10.047  -9.786  10.486 -0.04 +0.05    +0.194    13.580
ATOM      6  C   UNL d   1     -11.463 -10.303  10.228 -0.00 +0.03    +0.194    13.580
ATOM      7  O   UNL d   1     -13.458 -10.123   8.933 +0.00 -0.03    -0.278    13.580
ATOM      8  P   UNL d   1     -14.600  -9.336   8.141 +0.00 +0.06    +0.473    13.580
ATOM      9  O   UNL d   1     -14.737  -7.897   8.496 -0.00 -0.04    -0.228    13.580
ATOM     10  O   UNL d   1     -14.238  -9.572   6.605 -0.00 -0.04    -0.303    13.580
ATOM     11  H   UNL d   1     -13.318  -9.885   6.531 +0.01 +0.03    +0.222    13.580
ATOM     12  O   UNL d   1     -15.908 -10.221   8.315 +0.00 -0.02    -0.303    13.580
ATOM     13  H   UNL d   1     -16.704  -9.691   8.546 +0.00 +0.02    +0.222    13.580
ATOM     14  O   UNL d   1     -11.334 -10.456   7.262 -0.01 -0.04    -0.278    13.580
ATOM     15  P   UNL d   1     -11.489 -10.424   5.668 +0.00 +0.05    +0.473    13.580
ATOM     16  O   UNL d   1     -12.516 -11.337   5.075 -0.00 -0.01    -0.228    13.580
ATOM     17  O   UNL d   1     -11.760  -8.890   5.336 -0.02 -0.05    -0.303    13.580
ATOM     18  H   UNL d   1     -11.149  -8.310   5.829 +0.04 +0.05    +0.222    13.580
ATOM     19  O   UNL d   1     -10.007 -10.612   5.122 -0.01 -0.03    -0.303    13.580
ATOM     20  H   UNL d   1      -9.522  -9.766   5.098 +0.05 +0.03    +0.222    13.580
ATOM     21  O   UNL d   1     -12.153 -10.253  11.475 +0.00 -0.03    -0.278    13.580
ATOM     22  P   UNL d   1     -12.242 -11.561  12.384 +0.00 +0.05    +0.473    13.580
ATOM     23  O   UNL d   1     -13.575 -12.205  12.565 +0.00 -0.01    -0.228    13.580
ATOM     24  O   UNL d   1     -11.134 -12.493  11.722 +0.00 -0.04    -0.303    13.580
ATOM     25  H   UNL d   1     -10.297 -12.394  12.243 +0.01 +0.04    +0.222    13.580
ATOM     26  O   UNL d   1     -11.508 -11.076  13.724 +0.00 -0.03    -0.303    13.580
ATOM     27  H   UNL d   1     -10.540 -11.158  13.609 +0.01 +0.03    +0.222    13.580
ATOM     28  O   UNL d   1      -9.351  -8.713   6.988 -0.11 -0.07    -0.278    13.580
ATOM     29  P   UNL d   1      -9.097  -7.409   6.110 -0.13 +0.12    +0.473    13.580
ATOM     30  O   UNL d   1      -8.468  -7.642   4.784 -0.26 -0.04    -0.228    13.580
ATOM     31  O   UNL d   1     -10.568  -6.778   6.115 -0.14 -0.11    -0.303    13.580
ATOM     32  H   UNL d   1     -10.953  -6.872   5.213 +0.05 +0.09    +0.222    13.580
ATOM     33  O   UNL d   1      -8.308  -6.471   7.126 -0.33 -0.06    -0.303    13.580
ATOM     34  H   UNL d   1      -8.470  -6.789   8.048 +0.07 +0.05    +0.222    13.580
ATOM     35  O   UNL d   1      -9.318 -10.846  11.102 -0.04 -0.11    -0.278    13.580
ATOM     36  P   UNL d   1      -8.608 -10.621  12.512 -0.03 +0.16    +0.473    13.580
ATOM     37  O   UNL d   1      -8.497 -11.835  13.379 -0.01 -0.05    -0.228    13.580
ATOM     38  O   UNL d   1      -7.208  -9.999  12.076 -0.65 -0.23    -0.303    13.580
ATOM     39  H   UNL d   1      -7.368  -9.214  11.509 +0.04 +0.17    +0.222    13.580
ATOM     40  O   UNL d   1      -9.411  -9.382  13.103 -0.01 -0.06    -0.303    13.580
ATOM     41  H   UNL d   1     -10.368  -9.432  12.887 +0.01 +0.04    +0.222    13.580
ATOM     42  O   UNL d   1      -8.166  -8.624   9.609 -0.09 -0.16    -0.278    13.580
ATOM     43  P   UNL d   1      -8.446  -7.164  10.188 -0.14 +0.14    +0.473    13.580
ATOM     44  O   UNL d   1      -9.774  -6.554   9.900 -0.13 -0.05    -0.228    13.580
ATOM     45  O   UNL d   1      -8.131  -7.337  11.738 -0.11 -0.08    -0.303    13.580
ATOM     46  H   UNL d   1      -8.460  -8.193  12.077 +0.05 +0.06    +0.222    13.580
ATOM     47  O   UNL d   1      -7.176  -6.323   9.689 -0.23 -0.06    -0.303    13.580
ATOM     48  H   UNL d   1      -7.457  -5.699   8.988 -0.44 -0.03    +0.222    13.580
TER
ENDMDL
MODEL       61
USER    Run = 61
USER    Cluster Rank = 84
USER    Number of conformations in this cluster = 1
USER  
USER    RMSD from reference structure       = 23.409 A
USER  
USER    Estimated Free Energy of Binding    =   +4.41 kcal/mol  [=(1)+(2)+(3)-(4)]
USER    
USER    (1) Final Intermolecular Energy     =   -2.75 kcal/mol
USER        vdW + Hbond + desolv Energy     =   -2.59 kcal/mol
USER        Electrostatic Energy            =   -0.16 kcal/mol
USER    (2) Final Total Internal Energy     =  -14.33 kcal/mol
USER    (3) Torsional Free Energy           =   +7.16 kcal/mol
USER    (4) Unbound System's Energy  [=(2)] =  -14.33 kcal/mol
USER    
USER    
USER  
USER    DPF = D:/Protein_go_brrr/autodock/final/mut_D99N/IHP/dock.dpf
USER    NEWDPF move	IHP_ideal_opt.pdbqt
USER    NEWDPF about	0.035000 0.082000 -0.065000
USER    NEWDPF tran0	18.505692 -11.102843 -15.874119
USER    NEWDPF axisangle0	-0.981305 -0.064377 0.181375 -130.633354
USER    NEWDPF quaternion0	-0.891643 -0.058495 0.164802 -0.417603
USER    NEWDPF dihe0	26.58 15.62 148.07 11.86 15.24 171.84 -14.35 -158.24 103.72 96.67 54.03 149.22 170.90 -180.00 177.53 115.13 119.39 -24.41 52.18 9.02 -20.06 -6.88 -6.90 167.25 
USER  
USER                              x       y       z    vdW   Elec        q     RMS 
ATOM      1  C   UNL d   1      19.441  -9.654 -15.975 -0.01 -0.01    +0.194    23.409
ATOM      2  C   UNL d   1      18.422  -9.705 -14.835 -0.02 -0.02    +0.194    23.409
ATOM      3  C   UNL d   1      17.083 -10.283 -15.297 -0.07 -0.03    +0.194    23.409
ATOM      4  C   UNL d   1      17.221 -11.626 -16.009 -0.09 -0.05    +0.194    23.409
ATOM      5  C   UNL d   1      18.306 -11.654 -17.077 -0.03 -0.04    +0.194    23.409
ATOM      6  C   UNL d   1      19.627 -11.020 -16.635 -0.00 -0.02    +0.194    23.409
ATOM      7  O   UNL d   1      20.704  -9.269 -15.427 -0.00 +0.01    -0.278    23.409
ATOM      8  P   UNL d   1      20.884  -7.767 -14.915 -0.01 -0.00    +0.473    23.409
ATOM      9  O   UNL d   1      22.176  -7.125 -15.281 -0.00 +0.00    -0.228    23.409
ATOM     10  O   UNL d   1      19.613  -7.003 -15.504 -0.00 +0.01    -0.303    23.409
ATOM     11  H   UNL d   1      19.901  -6.179 -15.939 +0.01 -0.00    +0.222    23.409
ATOM     12  O   UNL d   1      20.551  -7.818 -13.362 -0.03 -0.00    -0.303    23.409
ATOM     13  H   UNL d   1      19.904  -8.522 -13.129 +0.02 +0.00    +0.222    23.409
ATOM     14  O   UNL d   1      18.938 -10.533 -13.785 -0.01 +0.01    -0.278    23.409
ATOM     15  P   UNL d   1      18.670 -10.038 -12.286 -0.04 -0.00    +0.473    23.409
ATOM     16  O   UNL d   1      19.870  -9.870 -11.408 -0.06 -0.01    -0.228    23.409
ATOM     17  O   UNL d   1      17.842  -8.689 -12.465 -0.08 -0.00    -0.303    23.409
ATOM     18  H   UNL d   1      17.068  -8.825 -13.045 +0.06 -0.01    +0.222    23.409
ATOM     19  O   UNL d   1      17.552 -11.027 -11.736 -0.05 +0.01    -0.303    23.409
ATOM     20  H   UNL d   1      16.816 -11.127 -12.368 +0.06 -0.01    +0.222    23.409
ATOM     21  O   UNL d   1      20.400 -10.813 -17.815 -0.00 +0.02    -0.278    23.409
ATOM     22  P   UNL d   1      21.847 -11.473 -17.940 +0.00 -0.02    +0.473    23.409
ATOM     23  O   UNL d   1      22.858 -10.795 -18.802 +0.00 +0.01    -0.228    23.409
ATOM     24  O   UNL d   1      22.267 -11.627 -16.413 +0.00 +0.01    -0.303    23.409
ATOM     25  H   UNL d   1      22.133 -10.752 -15.967 +0.00 -0.01    +0.222    23.409
ATOM     26  O   UNL d   1      21.483 -12.983 -18.338 -0.00 +0.02    -0.303    23.409
ATOM     27  H   UNL d   1      20.509 -13.085 -18.356 +0.00 -0.02    +0.222    23.409
ATOM     28  O   UNL d   1      16.307 -10.549 -14.135 -0.10 +0.04    -0.278    23.409
ATOM     29  P   UNL d   1      15.114  -9.578 -13.724 -0.17 -0.09    +0.473    23.409
ATOM     30  O   UNL d   1      13.789  -9.908 -14.309 -0.40 +0.06    -0.228    23.409
ATOM     31  O   UNL d   1      15.240  -9.639 -12.130 -0.18 +0.03    -0.303    23.409
ATOM     32  H   UNL d   1      16.195  -9.676 -11.892 +0.09 -0.01    +0.222    23.409
ATOM     33  O   UNL d   1      15.716  -8.145 -14.069 -0.09 +0.05    -0.303    23.409
ATOM     34  H   UNL d   1      16.056  -7.730 -13.239 +0.09 -0.02    +0.222    23.409
ATOM     35  O   UNL d   1      18.566 -13.033 -17.330 -0.02 +0.06    -0.278    23.409
ATOM     36  P   UNL d   1      18.434 -13.619 -18.808 -0.00 -0.10    +0.473    23.409
ATOM     37  O   UNL d   1      19.080 -14.950 -19.033 -0.00 +0.03    -0.228    23.409
ATOM     38  O   UNL d   1      16.856 -13.613 -19.022 -0.06 +0.14    -0.303    23.409
ATOM     39  H   UNL d   1      16.471 -12.845 -18.547 +0.04 -0.13    +0.222    23.409
ATOM     40  O   UNL d   1      18.947 -12.407 -19.701 +0.00 +0.04    -0.303    23.409
ATOM     41  H   UNL d   1      19.844 -12.110 -19.431 +0.01 -0.02    +0.222    23.409
ATOM     42  O   UNL d   1      15.975 -11.876 -16.668 -0.11 +0.17    -0.278    23.409
ATOM     43  P   UNL d   1      15.417 -10.795 -17.699 -0.10 -0.29    +0.473    23.409
ATOM     44  O   UNL d   1      16.397  -9.843 -18.293 -0.04 +0.06    -0.228    23.409
ATOM     45  O   UNL d   1      14.652 -11.693 -18.767 -0.15 +0.33    -0.303    23.409
ATOM     46  H   UNL d   1      14.945 -12.625 -18.726 +0.05 -0.29    +0.222    23.409
ATOM     47  O   UNL d   1      14.197 -10.125 -16.903 -0.71 +0.16    -0.303    23.409
ATOM     48  H   UNL d   1      13.789 -10.794 -16.315 -0.38 -0.22    +0.222    23.409
TER
ENDMDL
MODEL       22
USER    Run = 22
USER    Cluster Rank = 85
USER    Number of conformations in this cluster = 1
USER  
USER    RMSD from reference structure       = 25.914 A
USER  
USER    Estimated Free Energy of Binding    =   +4.54 kcal/mol  [=(1)+(2)+(3)-(4)]
USER    
USER    (1) Final Intermolecular Energy     =   -2.62 kcal/mol
USER        vdW + Hbond + desolv Energy     =   -1.92 kcal/mol
USER        Electrostatic Energy            =   -0.70 kcal/mol
USER    (2) Final Total Internal Energy     =  -14.88 kcal/mol
USER    (3) Torsional Free Energy           =   +7.16 kcal/mol
USER    (4) Unbound System's Energy  [=(2)] =  -14.88 kcal/mol
USER    
USER    
USER  
USER    DPF = D:/Protein_go_brrr/autodock/final/mut_D99N/IHP/dock.dpf
USER    NEWDPF move	IHP_ideal_opt.pdbqt
USER    NEWDPF about	0.035000 0.082000 -0.065000
USER    NEWDPF tran0	13.203881 -13.445007 -20.927858
USER    NEWDPF axisangle0	0.077757 0.056645 -0.995362 66.023005
USER    NEWDPF quaternion0	0.042362 0.030860 -0.542281 0.838561
USER    NEWDPF dihe0	91.95 157.15 127.71 123.79 109.60 85.49 -55.09 7.17 1.82 11.89 46.82 123.16 -72.28 76.51 -175.63 137.65 -179.85 -172.92 -146.08 -2.60 12.50 -18.10 -175.89 15.73 
USER  
USER                              x       y       z    vdW   Elec        q     RMS 
ATOM      1  C   UNL d   1      14.446 -12.635 -20.041 -0.11 -0.16    +0.194    25.914
ATOM      2  C   UNL d   1      14.699 -14.115 -20.331 -0.08 -0.15    +0.194    25.914
ATOM      3  C   UNL d   1      13.444 -14.960 -20.105 +0.00 -0.20    +0.194    25.914
ATOM      4  C   UNL d   1      12.219 -14.428 -20.846 -0.14 -0.11    +0.194    25.914
ATOM      5  C   UNL d   1      11.994 -12.931 -20.677 -0.18 -0.11    +0.194    25.914
ATOM      6  C   UNL d   1      13.262 -12.091 -20.843 -0.14 -0.10    +0.194    25.914
ATOM      7  O   UNL d   1      15.604 -11.898 -20.439 -0.04 +0.11    -0.278    25.914
ATOM      8  P   UNL d   1      15.661 -11.318 -21.926 +0.01 -0.09    +0.473    25.914
ATOM      9  O   UNL d   1      14.752 -11.984 -22.898 -0.01 +0.04    -0.228    25.914
ATOM     10  O   UNL d   1      15.359  -9.762 -21.747 -0.00 +0.04    -0.303    25.914
ATOM     11  H   UNL d   1      14.445  -9.641 -21.430 +0.03 -0.04    +0.222    25.914
ATOM     12  O   UNL d   1      17.203 -11.316 -22.309 +0.00 +0.03    -0.303    25.914
ATOM     13  H   UNL d   1      17.427 -11.966 -23.013 +0.00 -0.02    +0.222    25.914
ATOM     14  O   UNL d   1      15.107 -14.260 -21.698 -0.02 +0.09    -0.278    25.914
ATOM     15  P   UNL d   1      16.444 -15.101 -21.960 +0.01 -0.09    +0.473    25.914
ATOM     16  O   UNL d   1      16.379 -16.153 -23.023 +0.00 +0.03    -0.228    25.914
ATOM     17  O   UNL d   1      17.548 -13.991 -22.257 +0.00 +0.04    -0.303    25.914
ATOM     18  H   UNL d   1      17.365 -13.172 -21.758 +0.01 -0.04    +0.222    25.914
ATOM     19  O   UNL d   1      16.882 -15.609 -20.518 -0.01 +0.08    -0.303    25.914
ATOM     20  H   UNL d   1      16.224 -16.218 -20.135 +0.02 -0.08    +0.222    25.914
ATOM     21  O   UNL d   1      12.968 -10.795 -20.327 -0.15 +0.12    -0.278    25.914
ATOM     22  P   UNL d   1      12.372  -9.675 -21.294 -0.03 -0.07    +0.473    25.914
ATOM     23  O   UNL d   1      12.774  -8.257 -21.063 -0.07 +0.02    -0.228    25.914
ATOM     24  O   UNL d   1      12.750 -10.249 -22.730 -0.01 +0.04    -0.303    25.914
ATOM     25  H   UNL d   1      12.554 -11.221 -22.734 +0.03 -0.03    +0.222    25.914
ATOM     26  O   UNL d   1      10.801  -9.981 -21.218 -0.13 +0.03    -0.303    25.914
ATOM     27  H   UNL d   1      10.567 -10.638 -21.906 +0.06 -0.02    +0.222    25.914
ATOM     28  O   UNL d   1      13.688 -16.248 -20.657 -0.05 +0.14    -0.278    25.914
ATOM     29  P   UNL d   1      14.273 -17.416 -19.745 -0.03 -0.21    +0.473    25.914
ATOM     30  O   UNL d   1      13.342 -18.540 -19.470 -0.02 +0.07    -0.228    25.914
ATOM     31  O   UNL d   1      15.609 -17.760 -20.556 -0.00 +0.07    -0.303    25.914
ATOM     32  H   UNL d   1      15.633 -17.207 -21.371 +0.01 -0.05    +0.222    25.914
ATOM     33  O   UNL d   1      14.823 -16.612 -18.485 -0.06 +0.29    -0.303    25.914
ATOM     34  H   UNL d   1      14.060 -16.208 -18.004 -0.52 -0.46    +0.222    25.914
ATOM     35  O   UNL d   1      11.101 -12.554 -21.723 -0.09 +0.06    -0.278    25.914
ATOM     36  P   UNL d   1      11.338 -13.077 -23.211 -0.00 -0.06    +0.473    25.914
ATOM     37  O   UNL d   1      11.187 -12.050 -24.288 -0.01 +0.02    -0.228    25.914
ATOM     38  O   UNL d   1      12.798 -13.706 -23.107 -0.01 +0.05    -0.303    25.914
ATOM     39  H   UNL d   1      13.449 -12.985 -22.966 +0.02 -0.04    +0.222    25.914
ATOM     40  O   UNL d   1      10.380 -14.344 -23.283 -0.02 +0.03    -0.303    25.914
ATOM     41  H   UNL d   1      10.273 -14.770 -22.404 +0.03 -0.03    +0.222    25.914
ATOM     42  O   UNL d   1      11.078 -15.091 -20.290 -0.09 +0.13    -0.278    25.914
ATOM     43  P   UNL d   1      10.515 -16.396 -21.015 -0.05 -0.10    +0.473    25.914
ATOM     44  O   UNL d   1       9.066 -16.418 -21.360 -0.07 +0.02    -0.228    25.914
ATOM     45  O   UNL d   1      11.485 -16.545 -22.268 -0.01 +0.05    -0.303    25.914
ATOM     46  H   UNL d   1      11.862 -15.682 -22.533 +0.02 -0.04    +0.222    25.914
ATOM     47  O   UNL d   1      11.020 -17.587 -20.069 -0.05 +0.08    -0.303    25.914
ATOM     48  H   UNL d   1      11.997 -17.552 -19.999 +0.03 -0.08    +0.222    25.914
TER
ENDMDL
MODEL       81
USER    Run = 81
USER    Cluster Rank = 86
USER    Number of conformations in this cluster = 1
USER  
USER    RMSD from reference structure       = 19.565 A
USER  
USER    Estimated Free Energy of Binding    =   +4.57 kcal/mol  [=(1)+(2)+(3)-(4)]
USER    
USER    (1) Final Intermolecular Energy     =   -2.59 kcal/mol
USER        vdW + Hbond + desolv Energy     =   -2.00 kcal/mol
USER        Electrostatic Energy            =   -0.58 kcal/mol
USER    (2) Final Total Internal Energy     =  -12.56 kcal/mol
USER    (3) Torsional Free Energy           =   +7.16 kcal/mol
USER    (4) Unbound System's Energy  [=(2)] =  -12.56 kcal/mol
USER    
USER    
USER  
USER    DPF = D:/Protein_go_brrr/autodock/final/mut_D99N/IHP/dock.dpf
USER    NEWDPF move	IHP_ideal_opt.pdbqt
USER    NEWDPF about	0.035000 0.082000 -0.065000
USER    NEWDPF tran0	9.985472 2.206330 18.920744
USER    NEWDPF axisangle0	0.029174 -0.552761 -0.832829 -72.553659
USER    NEWDPF quaternion0	0.017262 -0.327062 -0.492774 -0.806168
USER    NEWDPF dihe0	-119.82 9.88 147.95 124.20 -3.80 159.96 -146.38 -16.00 128.27 -34.49 -174.62 -23.65 61.96 70.07 179.77 16.39 -180.00 33.58 39.02 0.70 173.32 -25.04 14.08 -168.59 
USER  
USER                              x       y       z    vdW   Elec        q     RMS 
ATOM      1  C   UNL d   1       9.236   0.973  19.871 -0.00 -0.03    +0.194    19.565
ATOM      2  C   UNL d   1       8.432   1.457  18.662 -0.01 -0.04    +0.194    19.565
ATOM      3  C   UNL d   1       8.477   2.981  18.525 -0.05 -0.09    +0.194    19.565
ATOM      4  C   UNL d   1       9.896   3.544  18.537 -0.02 -0.06    +0.194    19.565
ATOM      5  C   UNL d   1      10.770   2.999  19.660 -0.00 -0.04    +0.194    19.565
ATOM      6  C   UNL d   1      10.677   1.482  19.837 +0.00 -0.03    +0.194    19.565
ATOM      7  O   UNL d   1       9.287  -0.455  19.829 +0.00 +0.03    -0.278    19.565
ATOM      8  P   UNL d   1       8.055  -1.276  20.429 +0.00 -0.04    +0.473    19.565
ATOM      9  O   UNL d   1       7.268  -2.051  19.431 +0.00 +0.01    -0.228    19.565
ATOM     10  O   UNL d   1       8.714  -2.192  21.557 +0.00 +0.02    -0.303    19.565
ATOM     11  H   UNL d   1       8.819  -1.674  22.377 +0.00 -0.01    +0.222    19.565
ATOM     12  O   UNL d   1       7.237  -0.222  21.291 +0.00 +0.03    -0.303    19.565
ATOM     13  H   UNL d   1       7.812   0.437  21.742 +0.01 -0.03    +0.222    19.565
ATOM     14  O   UNL d   1       8.980   0.875  17.473 -0.00 +0.04    -0.278    19.565
ATOM     15  P   UNL d   1       7.938   0.214  16.453 +0.01 -0.05    +0.473    19.565
ATOM     16  O   UNL d   1       7.984   0.697  15.038 -0.05 +0.02    -0.228    19.565
ATOM     17  O   UNL d   1       8.209  -1.350  16.581 +0.00 +0.04    -0.303    19.565
ATOM     18  H   UNL d   1       8.180  -1.637  17.514 +0.01 -0.02    +0.222    19.565
ATOM     19  O   UNL d   1       6.529   0.354  17.180 -0.03 +0.03    -0.303    19.565
ATOM     20  H   UNL d   1       6.272   1.288  17.290 +0.06 -0.03    +0.222    19.565
ATOM     21  O   UNL d   1      11.257   1.179  21.104 +0.00 +0.03    -0.278    19.565
ATOM     22  P   UNL d   1      10.493   1.588  22.443 +0.01 -0.07    +0.473    19.565
ATOM     23  O   UNL d   1      11.308   1.902  23.652 +0.00 +0.03    -0.228    19.565
ATOM     24  O   UNL d   1       9.563   2.776  21.937 -0.00 +0.08    -0.303    19.565
ATOM     25  H   UNL d   1      10.142   3.553  21.729 +0.01 -0.06    +0.222    19.565
ATOM     26  O   UNL d   1       9.441   0.387  22.597 +0.00 +0.04    -0.303    19.565
ATOM     27  H   UNL d   1       9.397  -0.111  21.755 +0.00 -0.02    +0.222    19.565
ATOM     28  O   UNL d   1       7.951   3.311  17.246 -0.07 +0.12    -0.278    19.565
ATOM     29  P   UNL d   1       6.381   3.482  17.041 -0.15 -0.25    +0.473    19.565
ATOM     30  O   UNL d   1       5.536   3.060  18.188 -0.25 +0.14    -0.228    19.565
ATOM     31  O   UNL d   1       6.320   5.025  16.623 -0.29 +0.25    -0.303    19.565
ATOM     32  H   UNL d   1       6.141   5.562  17.429 -0.47 -0.46    +0.222    19.565
ATOM     33  O   UNL d   1       6.141   2.732  15.657 -0.07 +0.03    -0.303    19.565
ATOM     34  H   UNL d   1       6.659   1.890  15.654 +0.07 -0.02    +0.222    19.565
ATOM     35  O   UNL d   1      12.113   3.297  19.284 +0.00 +0.04    -0.278    19.565
ATOM     36  P   UNL d   1      13.193   3.681  20.393 +0.00 -0.05    +0.473    19.565
ATOM     37  O   UNL d   1      14.073   4.845  20.061 +0.00 +0.02    -0.228    19.565
ATOM     38  O   UNL d   1      12.278   3.898  21.678 +0.00 +0.05    -0.303    19.565
ATOM     39  H   UNL d   1      11.777   3.074  21.858 +0.00 -0.03    +0.222    19.565
ATOM     40  O   UNL d   1      13.911   2.288  20.666 +0.00 +0.02    -0.303    19.565
ATOM     41  H   UNL d   1      13.356   1.694  21.217 +0.00 -0.02    +0.222    19.565
ATOM     42  O   UNL d   1       9.780   4.956  18.741 -0.04 +0.14    -0.278    19.565
ATOM     43  P   UNL d   1       9.548   5.505  20.220 -0.04 -0.34    +0.473    19.565
ATOM     44  O   UNL d   1      10.736   5.593  21.115 -0.01 +0.08    -0.228    19.565
ATOM     45  O   UNL d   1       8.821   6.898  19.965 -0.09 +0.37    -0.303    19.565
ATOM     46  H   UNL d   1       7.893   6.879  20.274 -0.46 -0.55    +0.222    19.565
ATOM     47  O   UNL d   1       8.340   4.601  20.761 -0.09 +0.32    -0.303    19.565
ATOM     48  H   UNL d   1       8.373   4.570  21.739 +0.01 -0.18    +0.222    19.565
TER
ENDMDL
MODEL       88
USER    Run = 88
USER    Cluster Rank = 87
USER    Number of conformations in this cluster = 1
USER  
USER    RMSD from reference structure       = 22.159 A
USER  
USER    Estimated Free Energy of Binding    =   +4.85 kcal/mol  [=(1)+(2)+(3)-(4)]
USER    
USER    (1) Final Intermolecular Energy     =   -2.30 kcal/mol
USER        vdW + Hbond + desolv Energy     =   -2.10 kcal/mol
USER        Electrostatic Energy            =   -0.21 kcal/mol
USER    (2) Final Total Internal Energy     =  -14.34 kcal/mol
USER    (3) Torsional Free Energy           =   +7.16 kcal/mol
USER    (4) Unbound System's Energy  [=(2)] =  -14.34 kcal/mol
USER    
USER    
USER  
USER    DPF = D:/Protein_go_brrr/autodock/final/mut_D99N/IHP/dock.dpf
USER    NEWDPF move	IHP_ideal_opt.pdbqt
USER    NEWDPF about	0.035000 0.082000 -0.065000
USER    NEWDPF tran0	-14.704714 12.558163 16.732916
USER    NEWDPF axisangle0	-0.961629 -0.110864 -0.250956 -172.465830
USER    NEWDPF quaternion0	-0.959551 -0.110624 -0.250413 -0.065701
USER    NEWDPF dihe0	93.80 105.97 16.34 128.95 153.97 85.66 -31.80 -134.29 90.97 71.20 25.78 -176.77 -69.48 -76.49 58.93 -45.72 104.76 151.73 69.59 15.94 178.99 6.22 -9.24 -8.28 
USER  
USER                              x       y       z    vdW   Elec        q     RMS 
ATOM      1  C   UNL d   1     -13.489  13.785  16.731 -0.01 -0.02    +0.194    22.159
ATOM      2  C   UNL d   1     -14.919  14.272  16.490 -0.00 -0.02    +0.194    22.159
ATOM      3  C   UNL d   1     -15.674  13.354  15.526 -0.01 -0.02    +0.194    22.159
ATOM      4  C   UNL d   1     -15.626  11.884  15.933 -0.02 -0.01    +0.194    22.159
ATOM      5  C   UNL d   1     -14.232  11.385  16.294 -0.05 -0.01    +0.194    22.159
ATOM      6  C   UNL d   1     -13.453  12.333  17.209 -0.02 -0.01    +0.194    22.159
ATOM      7  O   UNL d   1     -12.913  14.588  17.765 -0.00 +0.02    -0.278    22.159
ATOM      8  P   UNL d   1     -12.952  16.177  17.603 +0.00 -0.04    +0.473    22.159
ATOM      9  O   UNL d   1     -13.208  16.664  16.220 -0.00 +0.03    -0.228    22.159
ATOM     10  O   UNL d   1     -14.063  16.644  18.648 +0.00 +0.02    -0.303    22.159
ATOM     11  H   UNL d   1     -14.930  16.284  18.387 +0.00 -0.01    +0.222    22.159
ATOM     12  O   UNL d   1     -11.614  16.694  18.284 -0.00 +0.02    -0.303    22.159
ATOM     13  H   UNL d   1     -10.802  16.343  17.855 +0.00 -0.02    +0.222    22.159
ATOM     14  O   UNL d   1     -15.620  14.298  17.739 -0.00 +0.01    -0.278    22.159
ATOM     15  P   UNL d   1     -16.734  15.436  17.911 +0.00 -0.02    +0.473    22.159
ATOM     16  O   UNL d   1     -16.620  16.628  17.012 +0.00 +0.01    -0.228    22.159
ATOM     17  O   UNL d   1     -18.113  14.659  17.734 +0.00 +0.01    -0.303    22.159
ATOM     18  H   UNL d   1     -18.309  14.501  16.791 +0.00 -0.01    +0.222    22.159
ATOM     19  O   UNL d   1     -16.742  15.751  19.470 +0.00 +0.01    -0.303    22.159
ATOM     20  H   UNL d   1     -15.923  16.199  19.751 +0.00 -0.01    +0.222    22.159
ATOM     21  O   UNL d   1     -12.091  11.914  17.173 -0.05 +0.02    -0.278    22.159
ATOM     22  P   UNL d   1     -11.187  12.267  15.907 -0.10 -0.09    +0.473    22.159
ATOM     23  O   UNL d   1     -10.442  13.559  15.912 -0.06 +0.04    -0.228    22.159
ATOM     24  O   UNL d   1     -10.273  10.970  15.787 -0.22 +0.07    -0.303    22.159
ATOM     25  H   UNL d   1     -10.750  10.307  15.226 -0.45 -0.09    +0.222    22.159
ATOM     26  O   UNL d   1     -12.221  12.056  14.700 -0.10 +0.10    -0.303    22.159
ATOM     27  H   UNL d   1     -12.190  11.122  14.410 -0.31 -0.15    +0.222    22.159
ATOM     28  O   UNL d   1     -17.048  13.715  15.579 -0.00 +0.02    -0.278    22.159
ATOM     29  P   UNL d   1     -17.781  14.286  14.285 +0.00 -0.05    +0.473    22.159
ATOM     30  O   UNL d   1     -17.393  15.663  13.884 -0.00 +0.03    -0.228    22.159
ATOM     31  O   UNL d   1     -17.466  13.111  13.245 -0.00 +0.05    -0.303    22.159
ATOM     32  H   UNL d   1     -17.230  12.299  13.751 +0.02 -0.02    +0.222    22.159
ATOM     33  O   UNL d   1     -19.315  14.044  14.636 +0.00 +0.02    -0.303    22.159
ATOM     34  H   UNL d   1     -19.520  13.082  14.532 +0.00 -0.01    +0.222    22.159
ATOM     35  O   UNL d   1     -14.431  10.172  17.018 -0.03 -0.01    -0.278    22.159
ATOM     36  P   UNL d   1     -13.790   8.809  16.494 -0.14 +0.09    +0.473    22.159
ATOM     37  O   UNL d   1     -13.417   7.822  17.554 -0.12 -0.08    -0.228    22.159
ATOM     38  O   UNL d   1     -14.905   8.292  15.481 -0.13 -0.08    -0.303    22.159
ATOM     39  H   UNL d   1     -15.465   9.050  15.207 +0.05 +0.03    +0.222    22.159
ATOM     40  O   UNL d   1     -12.622   9.325  15.545 -0.20 -0.00    -0.303    22.159
ATOM     41  H   UNL d   1     -12.269  10.193  15.841 -0.15 -0.03    +0.222    22.159
ATOM     42  O   UNL d   1     -16.064  11.125  14.801 -0.02 +0.01    -0.278    22.159
ATOM     43  P   UNL d   1     -17.362  10.209  14.941 +0.01 +0.01    +0.473    22.159
ATOM     44  O   UNL d   1     -17.567   9.147  13.917 -0.02 -0.02    -0.228    22.159
ATOM     45  O   UNL d   1     -17.243   9.661  16.431 -0.00 -0.02    -0.303    22.159
ATOM     46  H   UNL d   1     -16.343   9.328  16.619 +0.03 +0.02    +0.222    22.159
ATOM     47  O   UNL d   1     -18.550  11.276  15.080 -0.00 +0.00    -0.303    22.159
ATOM     48  H   UNL d   1     -18.181  12.180  15.008 +0.01 -0.01    +0.222    22.159
TER
ENDMDL
MODEL       41
USER    Run = 41
USER    Cluster Rank = 88
USER    Number of conformations in this cluster = 1
USER  
USER    RMSD from reference structure       = 22.871 A
USER  
USER    Estimated Free Energy of Binding    =   +5.50 kcal/mol  [=(1)+(2)+(3)-(4)]
USER    
USER    (1) Final Intermolecular Energy     =   -1.66 kcal/mol
USER        vdW + Hbond + desolv Energy     =   -1.60 kcal/mol
USER        Electrostatic Energy            =   -0.05 kcal/mol
USER    (2) Final Total Internal Energy     =  -14.40 kcal/mol
USER    (3) Torsional Free Energy           =   +7.16 kcal/mol
USER    (4) Unbound System's Energy  [=(2)] =  -14.40 kcal/mol
USER    
USER    
USER  
USER    DPF = D:/Protein_go_brrr/autodock/final/mut_D99N/IHP/dock.dpf
USER    NEWDPF move	IHP_ideal_opt.pdbqt
USER    NEWDPF about	0.035000 0.082000 -0.065000
USER    NEWDPF tran0	14.906063 -18.024634 -10.215393
USER    NEWDPF axisangle0	0.101985 -0.985474 0.135798 -179.849010
USER    NEWDPF quaternion0	0.101985 -0.985473 0.135798 -0.001318
USER    NEWDPF dihe0	154.25 105.80 32.65 -16.64 59.25 8.57 -91.42 1.05 155.90 8.03 117.60 172.19 139.35 168.43 128.93 5.61 108.32 -130.13 7.15 -29.33 151.72 -47.96 -51.67 153.85 
USER  
USER                              x       y       z    vdW   Elec        q     RMS 
ATOM      1  C   UNL d   1      13.878 -19.325 -10.702 -0.03 -0.00    +0.194    22.871
ATOM      2  C   UNL d   1      15.252 -19.733 -10.169 -0.00 -0.00    +0.194    22.871
ATOM      3  C   UNL d   1      16.363 -18.835 -10.718 -0.00 -0.01    +0.194    22.871
ATOM      4  C   UNL d   1      16.085 -17.346 -10.520 -0.01 -0.01    +0.194    22.871
ATOM      5  C   UNL d   1      14.683 -16.916 -10.931 -0.07 -0.01    +0.194    22.871
ATOM      6  C   UNL d   1      13.578 -17.849 -10.434 -0.07 +0.01    +0.194    22.871
ATOM      7  O   UNL d   1      12.887 -20.093 -10.015 -0.02 -0.00    -0.278    22.871
ATOM      8  P   UNL d   1      12.007 -21.125 -10.858 -0.01 -0.00    +0.473    22.871
ATOM      9  O   UNL d   1      10.837 -21.695 -10.135 -0.01 +0.00    -0.228    22.871
ATOM     10  O   UNL d   1      11.599 -20.307 -12.166 -0.02 +0.00    -0.303    22.871
ATOM     11  H   UNL d   1      11.930 -19.392 -12.096 +0.03 +0.01    +0.222    22.871
ATOM     12  O   UNL d   1      13.046 -22.179 -11.436 +0.00 +0.01    -0.303    22.871
ATOM     13  H   UNL d   1      13.536 -22.662 -10.733 +0.00 -0.00    +0.222    22.871
ATOM     14  O   UNL d   1      15.248 -19.632  -8.740 -0.00 +0.00    -0.278    22.871
ATOM     15  P   UNL d   1      15.105 -21.003  -7.926 +0.00 +0.00    +0.473    22.871
ATOM     16  O   UNL d   1      14.162 -20.999  -6.764 -0.00 -0.00    -0.228    22.871
ATOM     17  O   UNL d   1      14.711 -22.075  -9.037 +0.00 +0.00    -0.303    22.871
ATOM     18  H   UNL d   1      13.850 -21.859  -9.443 +0.00 -0.00    +0.222    22.871
ATOM     19  O   UNL d   1      16.602 -21.425  -7.592 +0.00 -0.00    -0.303    22.871
ATOM     20  H   UNL d   1      17.054 -21.798  -8.371 +0.00 -0.00    +0.222    22.871
ATOM     21  O   UNL d   1      12.400 -17.522 -11.168 -0.45 -0.09    -0.278    22.871
ATOM     22  P   UNL d   1      12.465 -17.406 -12.758 -0.12 -0.01    +0.473    22.871
ATOM     23  O   UNL d   1      11.194 -17.537 -13.527 -0.20 +0.02    -0.228    22.871
ATOM     24  O   UNL d   1      13.223 -16.021 -12.953 -0.22 +0.03    -0.303    22.871
ATOM     25  H   UNL d   1      13.325 -15.597 -12.062 +0.07 -0.01    +0.222    22.871
ATOM     26  O   UNL d   1      13.615 -18.465 -13.115 -0.03 +0.03    -0.303    22.871
ATOM     27  H   UNL d   1      13.909 -18.322 -14.037 +0.04 -0.04    +0.222    22.871
ATOM     28  O   UNL d   1      17.541 -19.102  -9.968 +0.00 +0.00    -0.278    22.871
ATOM     29  P   UNL d   1      18.202 -20.551  -9.999 +0.00 -0.01    +0.473    22.871
ATOM     30  O   UNL d   1      17.306 -21.655 -10.430 +0.00 +0.00    -0.228    22.871
ATOM     31  O   UNL d   1      19.481 -20.254 -10.915 +0.00 +0.00    -0.303    22.871
ATOM     32  H   UNL d   1      19.212 -19.645 -11.641 +0.00 -0.01    +0.222    22.871
ATOM     33  O   UNL d   1      18.832 -20.661  -8.541 +0.00 +0.00    -0.303    22.871
ATOM     34  H   UNL d   1      18.109 -20.580  -7.872 +0.00 -0.00    +0.222    22.871
ATOM     35  O   UNL d   1      14.471 -15.648 -10.315 -0.09 +0.01    -0.278    22.871
ATOM     36  P   UNL d   1      15.103 -14.328 -10.951 -0.11 -0.03    +0.473    22.871
ATOM     37  O   UNL d   1      14.363 -13.059 -10.669 -0.26 +0.02    -0.228    22.871
ATOM     38  O   UNL d   1      16.585 -14.364 -10.371 -0.02 +0.01    -0.303    22.871
ATOM     39  H   UNL d   1      17.146 -14.916 -10.958 +0.03 -0.01    +0.222    22.871
ATOM     40  O   UNL d   1      15.278 -14.737 -12.478 -0.11 +0.02    -0.303    22.871
ATOM     41  H   UNL d   1      15.493 -15.691 -12.577 +0.05 -0.02    +0.222    22.871
ATOM     42  O   UNL d   1      17.006 -16.638 -11.356 -0.01 +0.01    -0.278    22.871
ATOM     43  P   UNL d   1      17.268 -17.169 -12.837 -0.00 -0.04    +0.473    22.871
ATOM     44  O   UNL d   1      18.281 -18.247 -13.011 -0.00 +0.01    -0.228    22.871
ATOM     45  O   UNL d   1      15.807 -17.563 -13.331 -0.02 +0.04    -0.303    22.871
ATOM     46  H   UNL d   1      15.153 -16.875 -13.096 +0.04 -0.03    +0.222    22.871
ATOM     47  O   UNL d   1      17.541 -15.824 -13.666 -0.03 +0.03    -0.303    22.871
ATOM     48  H   UNL d   1      17.339 -15.050 -13.100 +0.03 -0.02    +0.222    22.871
TER
ENDMDL


AVSFLD: # AVS field file
AVSFLD: #
AVSFLD: # Created by AutoDock
AVSFLD: #
AVSFLD: ndim=2           # number of dimensions in the field
AVSFLD: nspace=1         # number of physical coordinates
AVSFLD: veclen=7         # vector size
AVSFLD: dim1=48          # atoms
AVSFLD: dim2=88          # conformations
AVSFLD: data=Real       # data type (byte,integer,Real,double)
AVSFLD: field=uniform    # field coordinate layout
AVSFLD: label= x y z vdW Elec q RMS
AVSFLD: variable 1 file = D:/Protein_go_brrr/autodock/final/mut_D99N/IHP/dock.dlg.pdb filetype = ascii offset = 5 stride = 12
AVSFLD: variable 2 file = D:/Protein_go_brrr/autodock/final/mut_D99N/IHP/dock.dlg.pdb filetype = ascii offset = 6 stride = 12
AVSFLD: variable 3 file = D:/Protein_go_brrr/autodock/final/mut_D99N/IHP/dock.dlg.pdb filetype = ascii offset = 7 stride = 12
AVSFLD: variable 4 file = D:/Protein_go_brrr/autodock/final/mut_D99N/IHP/dock.dlg.pdb filetype = ascii offset = 8 stride = 12
AVSFLD: variable 5 file = D:/Protein_go_brrr/autodock/final/mut_D99N/IHP/dock.dlg.pdb filetype = ascii offset = 9 stride = 12
AVSFLD: variable 6 file = D:/Protein_go_brrr/autodock/final/mut_D99N/IHP/dock.dlg.pdb filetype = ascii offset = 10 stride = 12
AVSFLD: variable 7 file = D:/Protein_go_brrr/autodock/final/mut_D99N/IHP/dock.dlg.pdb filetype = ascii offset = 11 stride = 12
AVSFLD: # end of file

>>> Closing the docking parameter file (DPF)...
This docking finished at:			12:30 29" p.m., 10/03/2025


________________________________________________________________________________

D:/autodockScripts/autodock4.exe: Successful Completion on "ACER"

Real= 18h 52m 35.15s,  CPU= 3m 34.30s,  System= 1m 37.64s
________________________________________________________________________________

