          AutoDock 4.2 Release 4.2.6   
         (C) 1989-2012 The Scripps Research Institute
        AutoDock comes with ABSOLUTELY NO WARRANTY.
        AutoDock is free software, and you are welcome
        to redistribute it under certain conditions;
        for details type 'autodock4 -C'

                     main.cc  $Revision: 1.213 $

                   Compiled on Jul 18 2014 at 15:34:58


This file was created at:			6:29 54" p.m., 10/06/2025
                   on host:		"ACER"
Current Working Directory = "D:\Protein_go_brrr\autodock\final\mut_Y35F\IHP"

      ________________________________________________________________

                   SETTING UP DEFAULT PARAMETER LIBRARY
      ________________________________________________________________


Random number generator was seeded with values 171760, 1759768194.
Docking parameter file (DPF) used for this docking:		D:/Protein_go_brrr/autodock/final/mut_Y35F/IHP/dock.dpf
DPF> autodock_parameter_version 4.2       # used by autodock to validate parameter set

	Autodock parameter version 4.2.
DPF> outlev 1                             # diagnostic output level

Output Level = 1  ADT-COMPATIBLE OUTPUT DURING DOCKING.
DPF> intelec                              # calculate internal electrostatics

Electrostatic energies will be calculated for all non-bonds between moving atoms.
DPF> seed pid time                        # seeds for random generator

Random number generator was seeded with values 171760, 1759768194.
DPF> ligand_types P C HD OA               # atoms types in ligand

DPF> fld mut_Y35F_m0.maps.fld             # grid_data_file

Opening Grid Map Dimensions file:		mut_Y35F_m0.maps.fld
Grid Point Spacing =				0.447 Angstroms

Even Number of User-specified Grid Points =	126 x-points
						126 y-points
						126 z-points

Coordinates of Central Grid Point of Maps =	(0.620, 0.306, 0.503)
Macromolecule file used to create Grid Maps =	mut_Y35F_m0.pdbqt
Grid Parameter file used to create Grid Maps =	D:/Protein_go_brrr/autodock/final/mut_Y35F/IHP/grid.gpf
Minimum coordinates in grid = (-27.541, -27.855, -27.658)
Maximum coordinates in grid = (28.781, 28.467, 28.664)

DPF> map mut_Y35F_m0.P.map                # atom-specific affinity map

DPF> map mut_Y35F_m0.C.map                # atom-specific affinity map

DPF> map mut_Y35F_m0.HD.map               # atom-specific affinity map

DPF> map mut_Y35F_m0.OA.map               # atom-specific affinity map

DPF> elecmap mut_Y35F_m0.e.map            # electrostatics map

DPF> desolvmap mut_Y35F_m0.d.map          # desolvation map

DPF> move IHP_ideal_opt.pdbqt             # small molecule

1,4-interactions will be _ignored_ in the non-bonded internal energy calculation.

Ligand PDBQT file = "IHP_ideal_opt.pdbqt"

INPUT LIGAND PDBQT FILE:
________________________

INPUT-LIGAND-PDBQT: REMARK  24 active torsions:
INPUT-LIGAND-PDBQT: REMARK  status: ('A' for Active; 'I' for Inactive)
INPUT-LIGAND-PDBQT: REMARK    1  A    between atoms: C_1  and  O_7 
INPUT-LIGAND-PDBQT: REMARK    2  A    between atoms: C_2  and  O_12 
INPUT-LIGAND-PDBQT: REMARK    3  A    between atoms: C_3  and  O_17 
INPUT-LIGAND-PDBQT: REMARK    4  A    between atoms: C_4  and  O_22 
INPUT-LIGAND-PDBQT: REMARK    5  A    between atoms: C_5  and  O_27 
INPUT-LIGAND-PDBQT: REMARK    6  A    between atoms: C_6  and  O_32 
INPUT-LIGAND-PDBQT: REMARK    7  A    between atoms: O_7  and  P_8 
INPUT-LIGAND-PDBQT: REMARK    8  A    between atoms: P_8  and  O_10 
INPUT-LIGAND-PDBQT: REMARK    9  A    between atoms: P_8  and  O_11 
INPUT-LIGAND-PDBQT: REMARK   10  A    between atoms: O_12  and  P_13 
INPUT-LIGAND-PDBQT: REMARK   11  A    between atoms: P_13  and  O_15 
INPUT-LIGAND-PDBQT: REMARK   12  A    between atoms: P_13  and  O_16 
INPUT-LIGAND-PDBQT: REMARK   13  A    between atoms: O_17  and  P_18 
INPUT-LIGAND-PDBQT: REMARK   14  A    between atoms: P_18  and  O_20 
INPUT-LIGAND-PDBQT: REMARK   15  A    between atoms: P_18  and  O_21 
INPUT-LIGAND-PDBQT: REMARK   16  A    between atoms: O_22  and  P_23 
INPUT-LIGAND-PDBQT: REMARK   17  A    between atoms: P_23  and  O_25 
INPUT-LIGAND-PDBQT: REMARK   18  A    between atoms: P_23  and  O_26 
INPUT-LIGAND-PDBQT: REMARK   19  A    between atoms: O_27  and  P_28 
INPUT-LIGAND-PDBQT: REMARK   20  A    between atoms: P_28  and  O_30 
INPUT-LIGAND-PDBQT: REMARK   21  A    between atoms: P_28  and  O_31 
INPUT-LIGAND-PDBQT: REMARK   22  A    between atoms: O_32  and  P_33 
INPUT-LIGAND-PDBQT: REMARK   23  A    between atoms: P_33  and  O_35 
INPUT-LIGAND-PDBQT: REMARK   24  A    between atoms: P_33  and  O_36 
INPUT-LIGAND-PDBQT: ROOT
INPUT-LIGAND-PDBQT: ATOM      1  C   UNL d   1       1.288  -0.806   0.726  0.00  0.00     0.194 C 
INPUT-LIGAND-PDBQT: ATOM      2  C   UNL d   1       0.040  -1.610   0.357  0.00  0.00     0.194 C 
INPUT-LIGAND-PDBQT: ATOM      3  C   UNL d   1      -1.244  -0.840   0.673  0.00  0.00     0.194 C 
INPUT-LIGAND-PDBQT: ATOM      4  C   UNL d   1      -1.265   0.565   0.076  0.00  0.00     0.194 C 
INPUT-LIGAND-PDBQT: ATOM      5  C   UNL d   1       0.009   1.363   0.322  0.00  0.00     0.194 C 
INPUT-LIGAND-PDBQT: ATOM      6  C   UNL d   1       1.294   0.573   0.065  0.00  0.00     0.194 C 
INPUT-LIGAND-PDBQT: ENDROOT
INPUT-LIGAND-PDBQT: BRANCH   1   7
INPUT-LIGAND-PDBQT: ATOM      7  O   UNL d   1       2.433  -1.514   0.245  0.00  0.00    -0.278 OA
INPUT-LIGAND-PDBQT: BRANCH   7   8
INPUT-LIGAND-PDBQT: ATOM      8  P   UNL d   1       3.563  -1.932   1.294  0.00  0.00     0.473 P 
INPUT-LIGAND-PDBQT: ATOM      9  O   UNL d   1       3.071  -2.662   2.494  0.00  0.00    -0.228 OA
INPUT-LIGAND-PDBQT: BRANCH   8  10
INPUT-LIGAND-PDBQT: ATOM     10  O   UNL d   1       4.602  -2.777   0.427  0.00  0.00    -0.303 OA
INPUT-LIGAND-PDBQT: ATOM     11  H   UNL d   1       5.122  -3.357   1.014  0.00  0.00     0.222 HD
INPUT-LIGAND-PDBQT: ENDBRANCH   8  10
INPUT-LIGAND-PDBQT: BRANCH   8  12
INPUT-LIGAND-PDBQT: ATOM     12  O   UNL d   1       4.376  -0.597   1.579  0.00  0.00    -0.303 OA
INPUT-LIGAND-PDBQT: ATOM     13  H   UNL d   1       4.592  -0.095   0.761  0.00  0.00     0.222 HD
INPUT-LIGAND-PDBQT: ENDBRANCH   8  12
INPUT-LIGAND-PDBQT: ENDBRANCH   7   8
INPUT-LIGAND-PDBQT: ENDBRANCH   1   7
INPUT-LIGAND-PDBQT: BRANCH   2  14
INPUT-LIGAND-PDBQT: ATOM     14  O   UNL d   1       0.067  -1.896  -1.047  0.00  0.00    -0.278 OA
INPUT-LIGAND-PDBQT: BRANCH  14  15
INPUT-LIGAND-PDBQT: ATOM     15  P   UNL d   1      -0.217  -3.413  -1.474  0.00  0.00     0.473 P 
INPUT-LIGAND-PDBQT: ATOM     16  O   UNL d   1      -1.497  -4.019  -0.990  0.00  0.00    -0.228 OA
INPUT-LIGAND-PDBQT: BRANCH  15  17
INPUT-LIGAND-PDBQT: ATOM     17  O   UNL d   1      -0.104  -3.396  -3.063  0.00  0.00    -0.303 OA
INPUT-LIGAND-PDBQT: ATOM     18  H   UNL d   1      -0.983  -3.299  -3.477  0.00  0.00     0.222 HD
INPUT-LIGAND-PDBQT: ENDBRANCH  15  17
INPUT-LIGAND-PDBQT: BRANCH  15  19
INPUT-LIGAND-PDBQT: ATOM     19  O   UNL d   1       1.108  -4.194  -1.068  0.00  0.00    -0.303 OA
INPUT-LIGAND-PDBQT: ATOM     20  H   UNL d   1       1.891  -3.839  -1.528  0.00  0.00     0.222 HD
INPUT-LIGAND-PDBQT: ENDBRANCH  15  19
INPUT-LIGAND-PDBQT: ENDBRANCH  14  15
INPUT-LIGAND-PDBQT: ENDBRANCH   2  14
INPUT-LIGAND-PDBQT: BRANCH   6  21
INPUT-LIGAND-PDBQT: ATOM     21  O   UNL d   1       2.359   1.315   0.655  0.00  0.00    -0.278 OA
INPUT-LIGAND-PDBQT: BRANCH  21  22
INPUT-LIGAND-PDBQT: ATOM     22  P   UNL d   1       3.322   2.189  -0.269  0.00  0.00     0.473 P 
INPUT-LIGAND-PDBQT: ATOM     23  O   UNL d   1       2.760   2.769  -1.523  0.00  0.00    -0.228 OA
INPUT-LIGAND-PDBQT: BRANCH  22  24
INPUT-LIGAND-PDBQT: ATOM     24  O   UNL d   1       3.885   3.258   0.767  0.00  0.00    -0.303 OA
INPUT-LIGAND-PDBQT: ATOM     25  H   UNL d   1       3.131   3.831   1.059  0.00  0.00     0.222 HD
INPUT-LIGAND-PDBQT: ENDBRANCH  22  24
INPUT-LIGAND-PDBQT: BRANCH  22  26
INPUT-LIGAND-PDBQT: ATOM     26  O   UNL d   1       4.578   1.209  -0.449  0.00  0.00    -0.303 OA
INPUT-LIGAND-PDBQT: ATOM     27  H   UNL d   1       5.288   1.681  -0.930  0.00  0.00     0.222 HD
INPUT-LIGAND-PDBQT: ENDBRANCH  22  26
INPUT-LIGAND-PDBQT: ENDBRANCH  21  22
INPUT-LIGAND-PDBQT: ENDBRANCH   6  21
INPUT-LIGAND-PDBQT: BRANCH   3  28
INPUT-LIGAND-PDBQT: ATOM     28  O   UNL d   1      -2.321  -1.530   0.052  0.00  0.00    -0.278 OA
INPUT-LIGAND-PDBQT: BRANCH  28  29
INPUT-LIGAND-PDBQT: ATOM     29  P   UNL d   1      -3.402  -2.296   0.936  0.00  0.00     0.473 P 
INPUT-LIGAND-PDBQT: ATOM     30  O   UNL d   1      -2.932  -2.753   2.269  0.00  0.00    -0.228 OA
INPUT-LIGAND-PDBQT: BRANCH  29  31
INPUT-LIGAND-PDBQT: ATOM     31  O   UNL d   1      -4.591  -1.225   0.913  0.00  0.00    -0.303 OA
INPUT-LIGAND-PDBQT: ATOM     32  H   UNL d   1      -4.772  -0.977  -0.023  0.00  0.00     0.222 HD
INPUT-LIGAND-PDBQT: ENDBRANCH  29  31
INPUT-LIGAND-PDBQT: BRANCH  29  33
INPUT-LIGAND-PDBQT: ATOM     33  O   UNL d   1      -3.920  -3.418  -0.068  0.00  0.00    -0.303 OA
INPUT-LIGAND-PDBQT: ATOM     34  H   UNL d   1      -3.155  -3.980  -0.344  0.00  0.00     0.222 HD
INPUT-LIGAND-PDBQT: ENDBRANCH  29  33
INPUT-LIGAND-PDBQT: ENDBRANCH  28  29
INPUT-LIGAND-PDBQT: ENDBRANCH   3  28
INPUT-LIGAND-PDBQT: BRANCH   5  35
INPUT-LIGAND-PDBQT: ATOM     35  O   UNL d   1      -0.019   2.436  -0.617  0.00  0.00    -0.278 OA
INPUT-LIGAND-PDBQT: BRANCH  35  36
INPUT-LIGAND-PDBQT: ATOM     36  P   UNL d   1       0.242   3.934  -0.135  0.00  0.00     0.473 P 
INPUT-LIGAND-PDBQT: ATOM     37  O   UNL d   1       1.386   4.117   0.811  0.00  0.00    -0.228 OA
INPUT-LIGAND-PDBQT: BRANCH  36  38
INPUT-LIGAND-PDBQT: ATOM     38  O   UNL d   1       0.411   4.698  -1.522  0.00  0.00    -0.303 OA
INPUT-LIGAND-PDBQT: ATOM     39  H   UNL d   1       1.257   4.425  -1.938  0.00  0.00     0.222 HD
INPUT-LIGAND-PDBQT: ENDBRANCH  36  38
INPUT-LIGAND-PDBQT: BRANCH  36  40
INPUT-LIGAND-PDBQT: ATOM     40  O   UNL d   1      -1.196   4.382   0.376  0.00  0.00    -0.303 OA
INPUT-LIGAND-PDBQT: ATOM     41  H   UNL d   1      -1.909   4.073  -0.226  0.00  0.00     0.222 HD
INPUT-LIGAND-PDBQT: ENDBRANCH  36  40
INPUT-LIGAND-PDBQT: ENDBRANCH  35  36
INPUT-LIGAND-PDBQT: ENDBRANCH   5  35
INPUT-LIGAND-PDBQT: BRANCH   4  42
INPUT-LIGAND-PDBQT: ATOM     42  O   UNL d   1      -2.334   1.271   0.715  0.00  0.00    -0.278 OA
INPUT-LIGAND-PDBQT: BRANCH  42  43
INPUT-LIGAND-PDBQT: ATOM     43  P   UNL d   1      -3.625   1.654  -0.140  0.00  0.00     0.473 P 
INPUT-LIGAND-PDBQT: ATOM     44  O   UNL d   1      -4.208   0.598  -1.014  0.00  0.00    -0.228 OA
INPUT-LIGAND-PDBQT: BRANCH  43  45
INPUT-LIGAND-PDBQT: ATOM     45  O   UNL d   1      -4.625   2.208   0.967  0.00  0.00    -0.303 OA
INPUT-LIGAND-PDBQT: ATOM     46  H   UNL d   1      -4.983   1.485   1.520  0.00  0.00     0.222 HD
INPUT-LIGAND-PDBQT: ENDBRANCH  43  45
INPUT-LIGAND-PDBQT: BRANCH  43  47
INPUT-LIGAND-PDBQT: ATOM     47  O   UNL d   1      -3.184   3.003  -0.885  0.00  0.00    -0.303 OA
INPUT-LIGAND-PDBQT: ATOM     48  H   UNL d   1      -3.918   3.311  -1.456  0.00  0.00     0.222 HD
INPUT-LIGAND-PDBQT: ENDBRANCH  43  47
INPUT-LIGAND-PDBQT: ENDBRANCH  42  43
INPUT-LIGAND-PDBQT: ENDBRANCH   4  42
INPUT-LIGAND-PDBQT: TORSDOF 24
________________________________________________________________________________

Total charge on ligand                               =	-0.006 e
REMARK  24 active torsions:
REMARK  status: ('A' for Active; 'I' for Inactive)
REMARK    1  A    between atoms: C_1  and  O_7 
REMARK    2  A    between atoms: C_2  and  O_12 
REMARK    3  A    between atoms: C_3  and  O_17 
REMARK    4  A    between atoms: C_4  and  O_22 
REMARK    5  A    between atoms: C_5  and  O_27 
REMARK    6  A    between atoms: C_6  and  O_32 
REMARK    7  A    between atoms: O_7  and  P_8 
REMARK    8  A    between atoms: P_8  and  O_10 
REMARK    9  A    between atoms: P_8  and  O_11 
REMARK   10  A    between atoms: O_12  and  P_13 
REMARK   11  A    between atoms: P_13  and  O_15 
REMARK   12  A    between atoms: P_13  and  O_16 
REMARK   13  A    between atoms: O_17  and  P_18 
REMARK   14  A    between atoms: P_18  and  O_20 
REMARK   15  A    between atoms: P_18  and  O_21 
REMARK   16  A    between atoms: O_22  and  P_23 
REMARK   17  A    between atoms: P_23  and  O_25 
REMARK   18  A    between atoms: P_23  and  O_26 
REMARK   19  A    between atoms: O_27  and  P_28 
REMARK   20  A    between atoms: P_28  and  O_30 
REMARK   21  A    between atoms: P_28  and  O_31 
REMARK   22  A    between atoms: O_32  and  P_33 
REMARK   23  A    between atoms: P_33  and  O_35 
REMARK   24  A    between atoms: P_33  and  O_36 


Number of Rotatable Bonds in Small Molecule =	24 torsions
Number of atoms in ligand:  48

Number of non-hydrogen atoms in ligand:  36

Number of vibrational degrees of freedom of ligand:  138


Number of torsional degrees of freedom = 24
Estimated loss of torsional free energy upon binding = +7.1592 kcal/mol


DPF> about 0.035 0.082 -0.065            # small molecule center

Small molecule center of rotation =	(+0.035, +0.082, -0.065)

DPF> tran0 random                         # initial coordinates/A or random

Initial translation =			(22.931, 0.153, -12.070) Angstroms
DPF> quaternion0 random                   # initial orientation

Each run will begin with a new, random initial orientation.
Initial quaternion,  (x,y,z,w) =	( 0.196, 0.484, -0.684, -0.510 ),
DPF> dihe0 random                         # initial dihedrals (relative) or random

DPF> torsdof 24                            # torsional degrees of freedom

Number of torsional degrees of freedom = 24
Free energy coefficient for torsional degrees of freedom = 0.2983, the factory default value.

Estimated loss of torsional free energy upon binding = +7.1592 kcal/mol

DPF> rmstol 2.0                           # cluster_tolerance/A

Maximum RMS tolerance for conformational cluster analysis = 2.00 Angstroms
DPF> extnrg 1000.0                        # external grid energy

External grid energy (beyond grid map walls) = 1000.00

DPF> e0max 0.0 10000                      # max initial energy; max number of retries

Using user-specified maximum number of retries for simanneal initialization, 10000 retries.
If the simanneal initial energy is greater than e0max, 0.000,
then a new, random initial state will be created.

DPF> ga_pop_size 150                      # number of individuals in population

A population of 150 individuals will be used
DPF> ga_num_evals 25000000                # maximum number of energy evaluations

There will be at most 25000000 function evaluations used.
DPF> ga_num_generations 27000             # maximum number of generations

The GA will run for at most 27000 generations.
DPF> ga_elitism 1                         # number of top individuals to survive to next generation

The 1 best will be preserved each GA generation.
DPF> ga_mutation_rate 0.02                # rate of gene mutation

The mutation rate is 0.020000.
DPF> ga_crossover_rate 0.8                # rate of crossover

The crossover rate is 0.800000.
DPF> ga_window_size 10                    # 

The GA's selection window is 10 generations.
DPF> ga_cauchy_alpha 0.0                  # Alpha parameter of Cauchy distribution

The alpha parameter (for the Cauchy distribution) is being set to 0.000000.
DPF> ga_cauchy_beta 1.0                   # Beta parameter Cauchy distribution

The beta parameter (for the Cauchy distribution) is being set to 1.000000.
DPF> set_ga                               # set the above parameters for GA or LGA

DPF> sw_max_its 300                       # iterations of Solis & Wets local search

Solis & Wets algorithms will perform at most 300 iterations.
DPF> sw_max_succ 4                        # consecutive successes before changing rho

Solis & Wets algorithms expand rho every 4 in a row successes.
DPF> sw_max_fail 4                        # consecutive failures before changing rho

Solis & Wets algorithms contract rho every 4 in a row failures.
DPF> sw_rho 1.0                           # size of local search space to sample

rho is set to 1.000000.
DPF> sw_lb_rho 0.01                       # lower bound on rho

rho will never get smaller than 0.010000.
DPF> ls_search_freq 0.06                  # probability of performing local search on individual

Local search will be performed with frequency 0.060000.
DPF> set_psw1                             # set the above pseudo-Solis & Wets parameters

Creating a new Local Search object using the pseudo-Solis-Wets algorithm (pSW1) with the current settings.

DPF> unbound_model bound                  # state of unbound ligand

DPF> ga_run 100                           # do this many hybrid GA-LS runs

centering ligand on specified point: 0.035 0.082 -0.065
Furthest true ligand atom from "about" center is 6.234 Angstroms (maxrad).
Number of requested GA dockings = 100 runs
Unbound model to be used is 'same as bound' [AutoDock 4.2 default].

	BEGINNING GENETIC ALGORITHM DOCKING 1 of 100
Run: 1 Seed: 641126044 1905254021 [ Run 1 of 100 GA/GALS ]
Beginning LAMARCKIAN GENETIC ALGORITHM (LGA), with a maximum of 25000000 energy evaluations.

Final-Value: -18.023


	FINAL GENETIC ALGORITHM DOCKED STATE
	_______________________________________________


Detailed state:  trans 16.818 -6.490 4.298 quatxyzw 0.527946 -0.414335 -0.648136 0.359888 center 0.035 0.082 -0.065 ntor 24 -119.1042 27.7882 56.3489 15.2830 20.0587 -175.3831 -9.1127 -104.9645 -10.8194 31.7759 -14.9929 -71.2570 -149.8231 155.6402 153.3025 -71.1723 -56.6835 -36.4400 30.8697 -12.3854 -16.5889 10.0301 -173.6615 8.3705
State:	 16.818  -6.490   4.298   0.566 -0.444 -0.695 137.813   -119.10   27.79   56.35   15.28   20.06 -175.38   -9.11 -104.96  -10.82   31.78  -14.99  -71.26 -149.82  155.64  153.30  -71.17  -56.68  -36.44   30.87  -12.39  -16.59   10.03 -173.66    8.37

DOCKED: MODEL        1
DOCKED: USER    Run = 1
DOCKED: USER    DPF = D:/Protein_go_brrr/autodock/final/mut_Y35F/IHP/dock.dpf
DOCKED: USER  
DOCKED: USER    Estimated Free Energy of Binding    =   +3.21 kcal/mol  [=(1)+(2)+(3)-(4)]
DOCKED: USER    
DOCKED: USER    (1) Final Intermolecular Energy     =   -3.95 kcal/mol
DOCKED: USER        vdW + Hbond + desolv Energy     =   -3.65 kcal/mol
DOCKED: USER        Electrostatic Energy            =   -0.30 kcal/mol
DOCKED: USER    (2) Final Total Internal Energy     =  -14.07 kcal/mol
DOCKED: USER    (3) Torsional Free Energy           =   +7.16 kcal/mol
DOCKED: USER    (4) Unbound System's Energy  [=(2)] =  -14.07 kcal/mol
DOCKED: USER    
DOCKED: USER    
DOCKED: USER    NEWDPF move IHP_ideal_opt.pdbqt
DOCKED: USER    NEWDPF about 0.035000 0.082000 -0.065000
DOCKED: USER    NEWDPF tran0 16.818495 -6.489679 4.297977
DOCKED: USER    NEWDPF quaternion0 0.527946 -0.414335 -0.648136 0.359888
DOCKED: USER    NEWDPF axisangle0 0.565861 -0.444091 -0.694683 137.813333
DOCKED: USER    NEWDPF quat0 0.565861 -0.444091 -0.694683 137.813333
DOCKED: USER    NEWDPF dihe0 -119.10 27.79 56.35 15.28 20.06 -175.38 -9.11 -104.96 -10.82 31.78 -14.99 -71.26 -149.82 155.64 153.30 -71.17 -56.68 -36.44 30.87 -12.39 -16.59 10.03 -173.66 8.37 
DOCKED: USER  keepresnum = 1 
DOCKED: USER  
DOCKED: REMARK  24 active torsions:
DOCKED: REMARK  status: ('A' for Active; 'I' for Inactive)
DOCKED: REMARK    1  A    between atoms: C_1  and  O_7 
DOCKED: REMARK    2  A    between atoms: C_2  and  O_12 
DOCKED: REMARK    3  A    between atoms: C_3  and  O_17 
DOCKED: REMARK    4  A    between atoms: C_4  and  O_22 
DOCKED: REMARK    5  A    between atoms: C_5  and  O_27 
DOCKED: REMARK    6  A    between atoms: C_6  and  O_32 
DOCKED: REMARK    7  A    between atoms: O_7  and  P_8 
DOCKED: REMARK    8  A    between atoms: P_8  and  O_10 
DOCKED: REMARK    9  A    between atoms: P_8  and  O_11 
DOCKED: REMARK   10  A    between atoms: O_12  and  P_13 
DOCKED: REMARK   11  A    between atoms: P_13  and  O_15 
DOCKED: REMARK   12  A    between atoms: P_13  and  O_16 
DOCKED: REMARK   13  A    between atoms: O_17  and  P_18 
DOCKED: REMARK   14  A    between atoms: P_18  and  O_20 
DOCKED: REMARK   15  A    between atoms: P_18  and  O_21 
DOCKED: REMARK   16  A    between atoms: O_22  and  P_23 
DOCKED: REMARK   17  A    between atoms: P_23  and  O_25 
DOCKED: REMARK   18  A    between atoms: P_23  and  O_26 
DOCKED: REMARK   19  A    between atoms: O_27  and  P_28 
DOCKED: REMARK   20  A    between atoms: P_28  and  O_30 
DOCKED: REMARK   21  A    between atoms: P_28  and  O_31 
DOCKED: REMARK   22  A    between atoms: O_32  and  P_33 
DOCKED: REMARK   23  A    between atoms: P_33  and  O_35 
DOCKED: REMARK   24  A    between atoms: P_33  and  O_36 
DOCKED: USER                              x       y       z     vdW  Elec       q    Type
DOCKED: USER                           _______ _______ _______ _____ _____    ______ ____
DOCKED: ROOT
DOCKED: ATOM      1  C   UNL d   1      17.086  -5.375   3.006 -0.10 +0.03    +0.194 C 
DOCKED: ATOM      2  C   UNL d   1      18.184  -5.430   4.069 -0.04 +0.02    +0.194 C 
DOCKED: ATOM      3  C   UNL d   1      17.602  -5.483   5.483 -0.03 +0.03    +0.194 C 
DOCKED: ATOM      4  C   UNL d   1      16.566  -6.590   5.665 -0.08 +0.07    +0.194 C 
DOCKED: ATOM      5  C   UNL d   1      15.516  -6.645   4.563 -0.15 +0.08    +0.194 C 
DOCKED: ATOM      6  C   UNL d   1      16.093  -6.529   3.151 -0.11 +0.02    +0.194 C 
DOCKED: ENDROOT
DOCKED: BRANCH   1   7
DOCKED: ATOM      7  O   UNL d   1      17.702  -5.501   1.722 -0.07 -0.04    -0.278 OA
DOCKED: BRANCH   7   8
DOCKED: ATOM      8  P   UNL d   1      18.130  -4.169   0.951 -0.18 +0.09    +0.473 P 
DOCKED: ATOM      9  O   UNL d   1      17.165  -3.698  -0.080 -0.33 -0.06    -0.228 OA
DOCKED: BRANCH   8  10
DOCKED: ATOM     10  O   UNL d   1      18.371  -3.108   2.118 -0.20 -0.04    -0.303 OA
DOCKED: ATOM     11  H   UNL d   1      19.268  -3.220   2.482 +0.06 +0.03    +0.222 HD
DOCKED: ENDBRANCH   8  10
DOCKED: BRANCH   8  12
DOCKED: ATOM     12  O   UNL d   1      19.610  -4.445   0.442 -0.11 -0.07    -0.303 OA
DOCKED: ATOM     13  H   UNL d   1      20.044  -5.196   0.906 +0.05 +0.03    +0.222 HD
DOCKED: ENDBRANCH   8  12
DOCKED: ENDBRANCH   7   8
DOCKED: ENDBRANCH   1   7
DOCKED: BRANCH   2  14
DOCKED: ATOM     14  O   UNL d   1      18.980  -6.603   3.858 -0.00 -0.03    -0.278 OA
DOCKED: BRANCH  14  15
DOCKED: ATOM     15  P   UNL d   1      20.534  -6.368   3.551 +0.00 +0.03    +0.473 P 
DOCKED: ATOM     16  O   UNL d   1      21.204  -7.373   2.667 -0.00 -0.01    -0.228 OA
DOCKED: BRANCH  15  17
DOCKED: ATOM     17  O   UNL d   1      20.593  -4.889   2.961 -0.02 -0.03    -0.303 OA
DOCKED: ATOM     18  H   UNL d   1      19.835  -4.716   2.371 +0.04 +0.03    +0.222 HD
DOCKED: ENDBRANCH  15  17
DOCKED: BRANCH  15  19
DOCKED: ATOM     19  O   UNL d   1      21.195  -6.167   4.984 -0.00 -0.02    -0.303 OA
DOCKED: ATOM     20  H   UNL d   1      20.664  -5.573   5.546 +0.00 +0.02    +0.222 HD
DOCKED: ENDBRANCH  15  19
DOCKED: ENDBRANCH  14  15
DOCKED: ENDBRANCH   2  14
DOCKED: BRANCH   6  21
DOCKED: ATOM     21  O   UNL d   1      14.999  -6.252   2.280 -0.17 -0.02    -0.278 OA
DOCKED: BRANCH  21  22
DOCKED: ATOM     22  P   UNL d   1      14.643  -7.273   1.107 -0.14 -0.01    +0.473 P 
DOCKED: ATOM     23  O   UNL d   1      13.542  -6.912   0.168 -0.32 +0.01    -0.228 OA
DOCKED: BRANCH  22  24
DOCKED: ATOM     24  O   UNL d   1      16.063  -7.489   0.420 -0.05 -0.03    -0.303 OA
DOCKED: ATOM     25  H   UNL d   1      16.486  -6.600   0.303 +0.08 +0.04    +0.222 HD
DOCKED: ENDBRANCH  22  24
DOCKED: BRANCH  22  26
DOCKED: ATOM     26  O   UNL d   1      14.455  -8.645   1.915 -0.14 +0.10    -0.303 OA
DOCKED: ATOM     27  H   UNL d   1      14.438  -8.453   2.875 -0.21 -0.12    +0.222 HD
DOCKED: ENDBRANCH  22  26
DOCKED: ENDBRANCH  21  22
DOCKED: ENDBRANCH   6  21
DOCKED: BRANCH   3  28
DOCKED: ATOM     28  O   UNL d   1      18.663  -5.810   6.371 -0.00 -0.04    -0.278 OA
DOCKED: BRANCH  28  29
DOCKED: ATOM     29  P   UNL d   1      19.054  -4.819   7.556 +0.01 +0.05    +0.473 P 
DOCKED: ATOM     30  O   UNL d   1      20.193  -3.907   7.278 -0.00 -0.02    -0.228 OA
DOCKED: BRANCH  29  31
DOCKED: ATOM     31  O   UNL d   1      17.631  -4.141   7.834 -0.00 -0.04    -0.303 OA
DOCKED: ATOM     32  H   UNL d   1      16.940  -4.842   7.811 +0.02 +0.05    +0.222 HD
DOCKED: ENDBRANCH  29  31
DOCKED: BRANCH  29  33
DOCKED: ATOM     33  O   UNL d   1      19.215  -5.817   8.786 +0.00 -0.03    -0.303 OA
DOCKED: ATOM     34  H   UNL d   1      18.448  -6.441   8.796 +0.01 +0.03    +0.222 HD
DOCKED: ENDBRANCH  29  33
DOCKED: ENDBRANCH  28  29
DOCKED: ENDBRANCH   3  28
DOCKED: BRANCH   5  35
DOCKED: ATOM     35  O   UNL d   1      14.914  -7.933   4.666 -0.30 -0.14    -0.278 OA
DOCKED: BRANCH  35  36
DOCKED: ATOM     36  P   UNL d   1      15.816  -9.226   4.907 -0.07 +0.06    +0.473 P 
DOCKED: ATOM     37  O   UNL d   1      17.288  -9.029   4.726 -0.02 -0.02    -0.228 OA
DOCKED: BRANCH  36  38
DOCKED: ATOM     38  O   UNL d   1      15.389  -9.652   6.381 -0.11 -0.16    -0.303 OA
DOCKED: ATOM     39  H   UNL d   1      15.874  -9.097   7.029 +0.02 +0.13    +0.222 HD
DOCKED: ENDBRANCH  36  38
DOCKED: BRANCH  36  40
DOCKED: ATOM     40  O   UNL d   1      15.114 -10.309   3.977 -0.05 +0.14    -0.303 OA
DOCKED: ATOM     41  H   UNL d   1      14.253  -9.987   3.630 -0.55 -0.33    +0.222 HD
DOCKED: ENDBRANCH  36  40
DOCKED: ENDBRANCH  35  36
DOCKED: ENDBRANCH   5  35
DOCKED: BRANCH   4  42
DOCKED: ATOM     42  O   UNL d   1      15.877  -6.316   6.890 -0.26 -0.16    -0.278 OA
DOCKED: BRANCH  42  43
DOCKED: ATOM     43  P   UNL d   1      16.248  -7.163   8.190 -0.04 +0.20    +0.473 P 
DOCKED: ATOM     44  O   UNL d   1      17.440  -8.052   8.113 -0.01 -0.05    -0.228 OA
DOCKED: BRANCH  43  45
DOCKED: ATOM     45  O   UNL d   1      16.340  -6.047   9.320 -0.01 -0.07    -0.303 OA
DOCKED: ATOM     46  H   UNL d   1      17.238  -5.664   9.372 +0.01 +0.04    +0.222 HD
DOCKED: ENDBRANCH  43  45
DOCKED: BRANCH  43  47
DOCKED: ATOM     47  O   UNL d   1      14.867  -7.888   8.560 -0.09 -0.26    -0.303 OA
DOCKED: ATOM     48  H   UNL d   1      14.936  -8.842   8.346 +0.01 +0.18    +0.222 HD
DOCKED: ENDBRANCH  43  47
DOCKED: ENDBRANCH  42  43
DOCKED: ENDBRANCH   4  42
DOCKED: TORSDOF 24
DOCKED: TER
DOCKED: ENDMDL
________________________________________________________________________________


	BEGINNING GENETIC ALGORITHM DOCKING 2 of 100
Run: 2 Seed: 1924426920 1067899843 [ Run 2 of 100 GA/GALS ]
Beginning LAMARCKIAN GENETIC ALGORITHM (LGA), with a maximum of 25000000 energy evaluations.

Final-Value: -16.991


	FINAL GENETIC ALGORITHM DOCKED STATE
	_______________________________________________


Detailed state:  trans -12.378 -17.655 9.525 quatxyzw 0.878487 -0.346563 0.020188 -0.328249 center 0.035 0.082 -0.065 ntor 24 -122.3841 41.3300 28.0612 57.5485 -5.9103 179.8161 -17.9629 -30.3665 35.7801 180.0000 -126.5604 179.7714 -163.5539 177.7009 -179.8511 -38.1931 -146.2322 158.1511 40.1421 -18.2563 175.7187 142.7037 6.0488 -179.8797
State:	-12.378 -17.655   9.525   0.930 -0.367  0.021 -141.675   -122.38   41.33   28.06   57.55   -5.91  179.82  -17.96  -30.37   35.78  180.00 -126.56  179.77 -163.55  177.70 -179.85  -38.19 -146.23  158.15   40.14  -18.26  175.72  142.70    6.05 -179.88

DOCKED: MODEL        2
DOCKED: USER    Run = 2
DOCKED: USER    DPF = D:/Protein_go_brrr/autodock/final/mut_Y35F/IHP/dock.dpf
DOCKED: USER  
DOCKED: USER    Estimated Free Energy of Binding    =   +3.62 kcal/mol  [=(1)+(2)+(3)-(4)]
DOCKED: USER    
DOCKED: USER    (1) Final Intermolecular Energy     =   -3.54 kcal/mol
DOCKED: USER        vdW + Hbond + desolv Energy     =   -3.47 kcal/mol
DOCKED: USER        Electrostatic Energy            =   -0.07 kcal/mol
DOCKED: USER    (2) Final Total Internal Energy     =  -13.45 kcal/mol
DOCKED: USER    (3) Torsional Free Energy           =   +7.16 kcal/mol
DOCKED: USER    (4) Unbound System's Energy  [=(2)] =  -13.45 kcal/mol
DOCKED: USER    
DOCKED: USER    
DOCKED: USER    NEWDPF move IHP_ideal_opt.pdbqt
DOCKED: USER    NEWDPF about 0.035000 0.082000 -0.065000
DOCKED: USER    NEWDPF tran0 -12.377755 -17.655179 9.525326
DOCKED: USER    NEWDPF quaternion0 0.878487 -0.346563 0.020188 -0.328249
DOCKED: USER    NEWDPF axisangle0 0.930018 -0.366892 0.021373 -141.674972
DOCKED: USER    NEWDPF quat0 0.930018 -0.366892 0.021373 -141.674972
DOCKED: USER    NEWDPF dihe0 -122.38 41.33 28.06 57.55 -5.91 179.82 -17.96 -30.37 35.78 180.00 -126.56 179.77 -163.55 177.70 -179.85 -38.19 -146.23 158.15 40.14 -18.26 175.72 142.70 6.05 -179.88 
DOCKED: USER  keepresnum = 1 
DOCKED: USER  
DOCKED: REMARK  24 active torsions:
DOCKED: REMARK  status: ('A' for Active; 'I' for Inactive)
DOCKED: REMARK    1  A    between atoms: C_1  and  O_7 
DOCKED: REMARK    2  A    between atoms: C_2  and  O_12 
DOCKED: REMARK    3  A    between atoms: C_3  and  O_17 
DOCKED: REMARK    4  A    between atoms: C_4  and  O_22 
DOCKED: REMARK    5  A    between atoms: C_5  and  O_27 
DOCKED: REMARK    6  A    between atoms: C_6  and  O_32 
DOCKED: REMARK    7  A    between atoms: O_7  and  P_8 
DOCKED: REMARK    8  A    between atoms: P_8  and  O_10 
DOCKED: REMARK    9  A    between atoms: P_8  and  O_11 
DOCKED: REMARK   10  A    between atoms: O_12  and  P_13 
DOCKED: REMARK   11  A    between atoms: P_13  and  O_15 
DOCKED: REMARK   12  A    between atoms: P_13  and  O_16 
DOCKED: REMARK   13  A    between atoms: O_17  and  P_18 
DOCKED: REMARK   14  A    between atoms: P_18  and  O_20 
DOCKED: REMARK   15  A    between atoms: P_18  and  O_21 
DOCKED: REMARK   16  A    between atoms: O_22  and  P_23 
DOCKED: REMARK   17  A    between atoms: P_23  and  O_25 
DOCKED: REMARK   18  A    between atoms: P_23  and  O_26 
DOCKED: REMARK   19  A    between atoms: O_27  and  P_28 
DOCKED: REMARK   20  A    between atoms: P_28  and  O_30 
DOCKED: REMARK   21  A    between atoms: P_28  and  O_31 
DOCKED: REMARK   22  A    between atoms: O_32  and  P_33 
DOCKED: REMARK   23  A    between atoms: P_33  and  O_35 
DOCKED: REMARK   24  A    between atoms: P_33  and  O_36 
DOCKED: USER                              x       y       z     vdW  Elec       q    Type
DOCKED: USER                           _______ _______ _______ _____ _____    ______ ____
DOCKED: ROOT
DOCKED: ATOM      1  C   UNL d   1     -11.026 -18.385   8.735 -0.06 -0.01    +0.194 C 
DOCKED: ATOM      2  C   UNL d   1     -11.402 -16.986   8.244 -0.11 -0.01    +0.194 C 
DOCKED: ATOM      3  C   UNL d   1     -12.917 -16.827   8.092 -0.13 -0.00    +0.194 C 
DOCKED: ATOM      4  C   UNL d   1     -13.692 -17.227   9.345 -0.07 -0.00    +0.194 C 
DOCKED: ATOM      5  C   UNL d   1     -13.269 -18.566   9.936 -0.01 -0.00    +0.194 C 
DOCKED: ATOM      6  C   UNL d   1     -11.753 -18.749  10.031 -0.01 -0.00    +0.194 C 
DOCKED: ENDROOT
DOCKED: BRANCH   1   7
DOCKED: ATOM      7  O   UNL d   1      -9.624 -18.398   9.015 -0.03 +0.01    -0.278 OA
DOCKED: BRANCH   7   8
DOCKED: ATOM      8  P   UNL d   1      -8.610 -18.618   7.801 -0.05 -0.02    +0.473 P 
DOCKED: ATOM      9  O   UNL d   1      -7.869 -19.908   7.823 -0.02 +0.01    -0.228 OA
DOCKED: BRANCH   8  10
DOCKED: ATOM     10  O   UNL d   1      -9.518 -18.438   6.501 -0.10 +0.06    -0.303 OA
DOCKED: ATOM     11  H   UNL d   1      -9.649 -17.487   6.323 -0.48 -0.08    +0.222 HD
DOCKED: ENDBRANCH   8  10
DOCKED: BRANCH   8  12
DOCKED: ATOM     12  O   UNL d   1      -7.716 -17.305   7.766 -0.14 +0.01    -0.303 OA
DOCKED: ATOM     13  H   UNL d   1      -7.996 -16.630   8.426 +0.07 -0.00    +0.222 HD
DOCKED: ENDBRANCH   8  12
DOCKED: ENDBRANCH   7   8
DOCKED: ENDBRANCH   1   7
DOCKED: BRANCH   2  14
DOCKED: ATOM     14  O   UNL d   1     -10.934 -16.018   9.190 -0.10 -0.01    -0.278 OA
DOCKED: BRANCH  14  15
DOCKED: ATOM     15  P   UNL d   1      -9.769 -15.037   8.694 -0.21 +0.01    +0.473 P 
DOCKED: ATOM     16  O   UNL d   1      -8.544 -14.962   9.551 -0.14 -0.00    -0.228 OA
DOCKED: BRANCH  15  17
DOCKED: ATOM     17  O   UNL d   1      -9.456 -15.527   7.211 -0.16 +0.00    -0.303 OA
DOCKED: ATOM     18  H   UNL d   1      -9.051 -16.416   7.212 +0.07 -0.02    +0.222 HD
DOCKED: ENDBRANCH  15  17
DOCKED: BRANCH  15  19
DOCKED: ATOM     19  O   UNL d   1     -10.504 -13.652   8.425 -0.33 -0.03    -0.303 OA
DOCKED: ATOM     20  H   UNL d   1     -11.464 -13.717   8.581 +0.09 +0.04    +0.222 HD
DOCKED: ENDBRANCH  15  19
DOCKED: ENDBRANCH  14  15
DOCKED: ENDBRANCH   2  14
DOCKED: BRANCH   6  21
DOCKED: ATOM     21  O   UNL d   1     -11.519 -20.136  10.266 -0.00 +0.00    -0.278 OA
DOCKED: BRANCH  21  22
DOCKED: ATOM     22  P   UNL d   1     -11.725 -21.185   9.082 +0.00 -0.01    +0.473 P 
DOCKED: ATOM     23  O   UNL d   1     -12.152 -22.570   9.434 +0.00 +0.00    -0.228 OA
DOCKED: BRANCH  22  24
DOCKED: ATOM     24  O   UNL d   1     -12.723 -20.402   8.122 -0.01 +0.01    -0.303 OA
DOCKED: ATOM     25  H   UNL d   1     -13.614 -20.380   8.556 +0.01 -0.01    +0.222 HD
DOCKED: ENDBRANCH  22  24
DOCKED: BRANCH  22  26
DOCKED: ATOM     26  O   UNL d   1     -10.336 -21.058   8.290 -0.00 +0.01    -0.303 OA
DOCKED: ATOM     27  H   UNL d   1      -9.736 -20.466   8.787 +0.01 -0.01    +0.222 HD
DOCKED: ENDBRANCH  22  26
DOCKED: ENDBRANCH  21  22
DOCKED: ENDBRANCH   6  21
DOCKED: BRANCH   3  28
DOCKED: ATOM     28  O   UNL d   1     -13.185 -15.444   7.907 -0.24 +0.01    -0.278 OA
DOCKED: BRANCH  28  29
DOCKED: ATOM     29  P   UNL d   1     -13.838 -14.587   9.081 -0.19 +0.03    +0.473 P 
DOCKED: ATOM     30  O   UNL d   1     -15.213 -14.987   9.477 -0.17 -0.01    -0.228 OA
DOCKED: BRANCH  29  31
DOCKED: ATOM     31  O   UNL d   1     -12.694 -14.719  10.192 -0.08 -0.04    -0.303 OA
DOCKED: ATOM     32  H   UNL d   1     -11.820 -14.754   9.739 +0.08 +0.03    +0.222 HD
DOCKED: ENDBRANCH  29  31
DOCKED: BRANCH  29  33
DOCKED: ATOM     33  O   UNL d   1     -13.646 -13.097   8.553 -0.33 -0.05    -0.303 OA
DOCKED: ATOM     34  H   UNL d   1     -13.641 -13.104   7.565 -0.45 -0.01    +0.222 HD
DOCKED: ENDBRANCH  29  33
DOCKED: ENDBRANCH  28  29
DOCKED: ENDBRANCH   3  28
DOCKED: BRANCH   5  35
DOCKED: ATOM     35  O   UNL d   1     -13.777 -18.578  11.268 -0.00 +0.00    -0.278 OA
DOCKED: BRANCH  35  36
DOCKED: ATOM     36  P   UNL d   1     -14.478 -19.888  11.850 +0.00 -0.01    +0.473 P 
DOCKED: ATOM     37  O   UNL d   1     -15.973 -19.859  11.884 -0.00 +0.01    -0.228 OA
DOCKED: BRANCH  36  38
DOCKED: ATOM     38  O   UNL d   1     -13.866 -21.026  10.918 +0.00 +0.01    -0.303 OA
DOCKED: ATOM     39  H   UNL d   1     -13.733 -20.664  10.015 +0.00 -0.01    +0.222 HD
DOCKED: ENDBRANCH  36  38
DOCKED: BRANCH  36  40
DOCKED: ATOM     40  O   UNL d   1     -13.728 -20.087  13.238 +0.00 +0.00    -0.303 OA
DOCKED: ATOM     41  H   UNL d   1     -14.350 -20.342  13.955 +0.00 -0.00    +0.222 HD
DOCKED: ENDBRANCH  36  40
DOCKED: ENDBRANCH  35  36
DOCKED: ENDBRANCH   5  35
DOCKED: BRANCH   4  42
DOCKED: ATOM     42  O   UNL d   1     -15.065 -17.352   8.960 -0.05 +0.01    -0.278 OA
DOCKED: BRANCH  42  43
DOCKED: ATOM     43  P   UNL d   1     -15.492 -18.554   8.002 -0.02 -0.04    +0.473 P 
DOCKED: ATOM     44  O   UNL d   1     -16.729 -18.381   7.192 -0.06 +0.04    -0.228 OA
DOCKED: BRANCH  43  45
DOCKED: ATOM     45  O   UNL d   1     -14.177 -18.795   7.138 -0.07 +0.01    -0.303 OA
DOCKED: ATOM     46  H   UNL d   1     -14.176 -19.683   6.728 +0.03 -0.00    +0.222 HD
DOCKED: ENDBRANCH  43  45
DOCKED: BRANCH  43  47
DOCKED: ATOM     47  O   UNL d   1     -15.477 -19.824   8.979 -0.00 +0.02    -0.303 OA
DOCKED: ATOM     48  H   UNL d   1     -15.198 -19.540   9.874 +0.01 -0.01    +0.222 HD
DOCKED: ENDBRANCH  43  47
DOCKED: ENDBRANCH  42  43
DOCKED: ENDBRANCH   4  42
DOCKED: TORSDOF 24
DOCKED: TER
DOCKED: ENDMDL
________________________________________________________________________________


	BEGINNING GENETIC ALGORITHM DOCKING 3 of 100
Run: 3 Seed: 594353763 131916070 [ Run 3 of 100 GA/GALS ]
Beginning LAMARCKIAN GENETIC ALGORITHM (LGA), with a maximum of 25000000 energy evaluations.

Final-Value: -18.168


	FINAL GENETIC ALGORITHM DOCKED STATE
	_______________________________________________


Detailed state:  trans -10.890 -7.020 17.720 quatxyzw 0.551532 -0.206772 0.327631 0.738725 center 0.035 0.082 -0.065 ntor 24 180.0000 -33.5597 -179.9685 -12.8402 -16.8036 -143.6339 -97.5290 -28.1687 -30.2513 85.1421 44.3431 -140.3726 90.3437 -180.0000 -17.9333 -16.0267 -91.8868 -67.7609 -4.6541 17.1503 167.8152 4.3302 13.6280 -180.0000
State:	-10.890  -7.020  17.720   0.818 -0.307  0.486 84.754    180.00  -33.56 -179.97  -12.84  -16.80 -143.63  -97.53  -28.17  -30.25   85.14   44.34 -140.37   90.34 -180.00  -17.93  -16.03  -91.89  -67.76   -4.65   17.15  167.82    4.33   13.63 -180.00

DOCKED: MODEL        3
DOCKED: USER    Run = 3
DOCKED: USER    DPF = D:/Protein_go_brrr/autodock/final/mut_Y35F/IHP/dock.dpf
DOCKED: USER  
DOCKED: USER    Estimated Free Energy of Binding    =   +3.14 kcal/mol  [=(1)+(2)+(3)-(4)]
DOCKED: USER    
DOCKED: USER    (1) Final Intermolecular Energy     =   -4.01 kcal/mol
DOCKED: USER        vdW + Hbond + desolv Energy     =   -3.54 kcal/mol
DOCKED: USER        Electrostatic Energy            =   -0.48 kcal/mol
DOCKED: USER    (2) Final Total Internal Energy     =  -14.15 kcal/mol
DOCKED: USER    (3) Torsional Free Energy           =   +7.16 kcal/mol
DOCKED: USER    (4) Unbound System's Energy  [=(2)] =  -14.15 kcal/mol
DOCKED: USER    
DOCKED: USER    
DOCKED: USER    NEWDPF move IHP_ideal_opt.pdbqt
DOCKED: USER    NEWDPF about 0.035000 0.082000 -0.065000
DOCKED: USER    NEWDPF tran0 -10.890413 -7.019836 17.720194
DOCKED: USER    NEWDPF quaternion0 0.551532 -0.206772 0.327631 0.738725
DOCKED: USER    NEWDPF axisangle0 0.818290 -0.306781 0.486094 84.754096
DOCKED: USER    NEWDPF quat0 0.818290 -0.306781 0.486094 84.754096
DOCKED: USER    NEWDPF dihe0 180.00 -33.56 -179.97 -12.84 -16.80 -143.63 -97.53 -28.17 -30.25 85.14 44.34 -140.37 90.34 -180.00 -17.93 -16.03 -91.89 -67.76 -4.65 17.15 167.82 4.33 13.63 -180.00 
DOCKED: USER  keepresnum = 1 
DOCKED: USER  
DOCKED: REMARK  24 active torsions:
DOCKED: REMARK  status: ('A' for Active; 'I' for Inactive)
DOCKED: REMARK    1  A    between atoms: C_1  and  O_7 
DOCKED: REMARK    2  A    between atoms: C_2  and  O_12 
DOCKED: REMARK    3  A    between atoms: C_3  and  O_17 
DOCKED: REMARK    4  A    between atoms: C_4  and  O_22 
DOCKED: REMARK    5  A    between atoms: C_5  and  O_27 
DOCKED: REMARK    6  A    between atoms: C_6  and  O_32 
DOCKED: REMARK    7  A    between atoms: O_7  and  P_8 
DOCKED: REMARK    8  A    between atoms: P_8  and  O_10 
DOCKED: REMARK    9  A    between atoms: P_8  and  O_11 
DOCKED: REMARK   10  A    between atoms: O_12  and  P_13 
DOCKED: REMARK   11  A    between atoms: P_13  and  O_15 
DOCKED: REMARK   12  A    between atoms: P_13  and  O_16 
DOCKED: REMARK   13  A    between atoms: O_17  and  P_18 
DOCKED: REMARK   14  A    between atoms: P_18  and  O_20 
DOCKED: REMARK   15  A    between atoms: P_18  and  O_21 
DOCKED: REMARK   16  A    between atoms: O_22  and  P_23 
DOCKED: REMARK   17  A    between atoms: P_23  and  O_25 
DOCKED: REMARK   18  A    between atoms: P_23  and  O_26 
DOCKED: REMARK   19  A    between atoms: O_27  and  P_28 
DOCKED: REMARK   20  A    between atoms: P_28  and  O_30 
DOCKED: REMARK   21  A    between atoms: P_28  and  O_31 
DOCKED: REMARK   22  A    between atoms: O_32  and  P_33 
DOCKED: REMARK   23  A    between atoms: P_33  and  O_35 
DOCKED: REMARK   24  A    between atoms: P_33  and  O_36 
DOCKED: USER                              x       y       z     vdW  Elec       q    Type
DOCKED: USER                           _______ _______ _______ _____ _____    ______ ____
DOCKED: ROOT
DOCKED: ATOM      1  C   UNL d   1      -9.713  -7.532  18.876 -0.00 -0.01    +0.194 C 
DOCKED: ATOM      2  C   UNL d   1     -11.039  -7.036  19.458 +0.00 -0.01    +0.194 C 
DOCKED: ATOM      3  C   UNL d   1     -11.529  -5.771  18.751 -0.01 -0.02    +0.194 C 
DOCKED: ATOM      4  C   UNL d   1     -11.582  -5.913  17.232 -0.07 -0.06    +0.194 C 
DOCKED: ATOM      5  C   UNL d   1     -10.323  -6.512  16.620 -0.09 -0.05    +0.194 C 
DOCKED: ATOM      6  C   UNL d   1      -9.797  -7.741  17.364 -0.02 -0.02    +0.194 C 
DOCKED: ENDROOT
DOCKED: BRANCH   1   7
DOCKED: ATOM      7  O   UNL d   1      -9.414  -8.799  19.466 +0.00 +0.01    -0.278 OA
DOCKED: BRANCH   7   8
DOCKED: ATOM      8  P   UNL d   1      -7.984  -9.000  20.149 +0.00 -0.02    +0.473 P 
DOCKED: ATOM      9  O   UNL d   1      -7.989  -9.813  21.396 +0.00 +0.01    -0.228 OA
DOCKED: BRANCH   8  10
DOCKED: ATOM     10  O   UNL d   1      -7.087  -9.631  18.991 -0.00 +0.01    -0.303 OA
DOCKED: ATOM     11  H   UNL d   1      -7.476  -9.417  18.122 +0.02 -0.01    +0.222 HD
DOCKED: ENDBRANCH   8  10
DOCKED: BRANCH   8  12
DOCKED: ATOM     12  O   UNL d   1      -7.379  -7.537  20.278 -0.00 +0.01    -0.303 OA
DOCKED: ATOM     13  H   UNL d   1      -7.006  -7.198  19.433 +0.02 -0.01    +0.222 HD
DOCKED: ENDBRANCH   8  12
DOCKED: ENDBRANCH   7   8
DOCKED: ENDBRANCH   1   7
DOCKED: BRANCH   2  14
DOCKED: ATOM     14  O   UNL d   1     -12.029  -8.060  19.301 +0.00 +0.02    -0.278 OA
DOCKED: BRANCH  14  15
DOCKED: ATOM     15  P   UNL d   1     -13.169  -8.131  20.424 +0.00 -0.02    +0.473 P 
DOCKED: ATOM     16  O   UNL d   1     -13.340  -9.442  21.126 +0.00 +0.01    -0.228 OA
DOCKED: BRANCH  15  17
DOCKED: ATOM     17  O   UNL d   1     -12.807  -6.941  21.419 +0.00 +0.01    -0.303 OA
DOCKED: ATOM     18  H   UNL d   1     -13.170  -6.092  21.100 +0.00 -0.01    +0.222 HD
DOCKED: ENDBRANCH  15  17
DOCKED: BRANCH  15  19
DOCKED: ATOM     19  O   UNL d   1     -14.469  -7.562  19.706 +0.00 +0.02    -0.303 OA
DOCKED: ATOM     20  H   UNL d   1     -14.416  -6.598  19.575 +0.01 -0.02    +0.222 HD
DOCKED: ENDBRANCH  15  19
DOCKED: ENDBRANCH  14  15
DOCKED: ENDBRANCH   2  14
DOCKED: BRANCH   6  21
DOCKED: ATOM     21  O   UNL d   1      -8.468  -7.968  16.899 -0.05 +0.03    -0.278 OA
DOCKED: BRANCH  21  22
DOCKED: ATOM     22  P   UNL d   1      -7.329  -6.894  17.205 -0.10 -0.06    +0.473 P 
DOCKED: ATOM     23  O   UNL d   1      -7.619  -5.823  18.202 -0.09 +0.01    -0.228 OA
DOCKED: BRANCH  22  24
DOCKED: ATOM     24  O   UNL d   1      -6.092  -7.828  17.570 -0.11 +0.04    -0.303 OA
DOCKED: ATOM     25  H   UNL d   1      -6.173  -8.089  18.522 +0.03 -0.01    +0.222 HD
DOCKED: ENDBRANCH  22  24
DOCKED: BRANCH  22  26
DOCKED: ATOM     26  O   UNL d   1      -6.945  -6.397  15.730 +0.16 +0.11    -0.303 OA
DOCKED: ATOM     27  H   UNL d   1      -7.764  -6.276  15.208 -0.37 -0.08    +0.222 HD
DOCKED: ENDBRANCH  22  26
DOCKED: ENDBRANCH  21  22
DOCKED: ENDBRANCH   6  21
DOCKED: BRANCH   3  28
DOCKED: ATOM     28  O   UNL d   1     -12.874  -5.548  19.156 -0.01 +0.03    -0.278 OA
DOCKED: BRANCH  28  29
DOCKED: ATOM     29  P   UNL d   1     -13.253  -4.257  20.009 +0.01 -0.03    +0.473 P 
DOCKED: ATOM     30  O   UNL d   1     -12.301  -3.901  21.091 -0.00 +0.01    -0.228 OA
DOCKED: BRANCH  29  31
DOCKED: ATOM     31  O   UNL d   1     -13.445  -3.191  18.830 -0.01 +0.02    -0.303 OA
DOCKED: ATOM     32  H   UNL d   1     -12.690  -3.277  18.203 +0.04 -0.02    +0.222 HD
DOCKED: ENDBRANCH  29  31
DOCKED: BRANCH  29  33
DOCKED: ATOM     33  O   UNL d   1     -14.752  -4.573  20.444 -0.00 +0.01    -0.303 OA
DOCKED: ATOM     34  H   UNL d   1     -14.860  -5.551  20.538 +0.00 -0.01    +0.222 HD
DOCKED: ENDBRANCH  29  33
DOCKED: ENDBRANCH  28  29
DOCKED: ENDBRANCH   3  28
DOCKED: BRANCH   5  35
DOCKED: ATOM     35  O   UNL d   1     -10.694  -6.940  15.311 -0.10 +0.15    -0.278 OA
DOCKED: BRANCH  35  36
DOCKED: ATOM     36  P   UNL d   1      -9.660  -6.821  14.102 -0.25 -0.09    +0.473 P 
DOCKED: ATOM     37  O   UNL d   1      -8.963  -5.503  13.977 -0.59 +0.01    -0.228 OA
DOCKED: BRANCH  36  38
DOCKED: ATOM     38  O   UNL d   1      -8.688  -8.051  14.382 -0.14 +0.02    -0.303 OA
DOCKED: ATOM     39  H   UNL d   1      -7.870  -7.722  14.813 -0.45 -0.09    +0.222 HD
DOCKED: ENDBRANCH  36  38
DOCKED: BRANCH  36  40
DOCKED: ATOM     40  O   UNL d   1     -10.533  -7.297  12.861 -0.35 -0.13    -0.303 OA
DOCKED: ATOM     41  H   UNL d   1     -11.435  -6.907  12.879 -0.29 -0.24    +0.222 HD
DOCKED: ENDBRANCH  36  40
DOCKED: ENDBRANCH  35  36
DOCKED: ENDBRANCH   5  35
DOCKED: BRANCH   4  42
DOCKED: ATOM     42  O   UNL d   1     -11.724  -4.592  16.697 -0.12 +0.09    -0.278 OA
DOCKED: BRANCH  42  43
DOCKED: ATOM     43  P   UNL d   1     -10.500  -3.576  16.818 -0.14 -0.02    +0.473 P 
DOCKED: ATOM     44  O   UNL d   1      -9.491  -3.840  17.881 -0.10 +0.00    -0.228 OA
DOCKED: BRANCH  43  45
DOCKED: ATOM     45  O   UNL d   1      -9.905  -3.569  15.342 -0.32 -0.01    -0.303 OA
DOCKED: ATOM     46  H   UNL d   1     -10.066  -4.420  14.887 +0.07 -0.03    +0.222 HD
DOCKED: ENDBRANCH  43  45
DOCKED: BRANCH  43  47
DOCKED: ATOM     47  O   UNL d   1     -11.218  -2.145  16.886 -0.21 -0.02    -0.303 OA
DOCKED: ATOM     48  H   UNL d   1     -12.033  -2.218  17.426 +0.06 -0.00    +0.222 HD
DOCKED: ENDBRANCH  43  47
DOCKED: ENDBRANCH  42  43
DOCKED: ENDBRANCH   4  42
DOCKED: TORSDOF 24
DOCKED: TER
DOCKED: ENDMDL
________________________________________________________________________________


	BEGINNING GENETIC ALGORITHM DOCKING 4 of 100
Run: 4 Seed: 1562459250 1391685740 [ Run 4 of 100 GA/GALS ]
Beginning LAMARCKIAN GENETIC ALGORITHM (LGA), with a maximum of 25000000 energy evaluations.

Final-Value: -17.721


	FINAL GENETIC ALGORITHM DOCKED STATE
	_______________________________________________


Detailed state:  trans 14.294 -0.975 10.152 quatxyzw 0.893276 -0.020144 0.434219 -0.114482 center 0.035 0.082 -0.065 ntor 24 113.3077 111.4831 139.9487 26.1776 102.3244 75.1581 -55.2120 -5.2763 3.3409 28.9188 26.8372 180.0000 -72.5316 29.6961 177.7686 -172.6449 -162.7108 -145.6414 -148.7969 -19.2347 8.7655 -20.8147 171.9000 -17.0212
State:	 14.294  -0.975  10.152   0.899 -0.020  0.437 -166.852    113.31  111.48  139.95   26.18  102.32   75.16  -55.21   -5.28    3.34   28.92   26.84  180.00  -72.53   29.70  177.77 -172.64 -162.71 -145.64 -148.80  -19.23    8.77  -20.81  171.90  -17.02

DOCKED: MODEL        4
DOCKED: USER    Run = 4
DOCKED: USER    DPF = D:/Protein_go_brrr/autodock/final/mut_Y35F/IHP/dock.dpf
DOCKED: USER  
DOCKED: USER    Estimated Free Energy of Binding    =   +3.54 kcal/mol  [=(1)+(2)+(3)-(4)]
DOCKED: USER    
DOCKED: USER    (1) Final Intermolecular Energy     =   -3.62 kcal/mol
DOCKED: USER        vdW + Hbond + desolv Energy     =   -3.33 kcal/mol
DOCKED: USER        Electrostatic Energy            =   -0.29 kcal/mol
DOCKED: USER    (2) Final Total Internal Energy     =  -14.10 kcal/mol
DOCKED: USER    (3) Torsional Free Energy           =   +7.16 kcal/mol
DOCKED: USER    (4) Unbound System's Energy  [=(2)] =  -14.10 kcal/mol
DOCKED: USER    
DOCKED: USER    
DOCKED: USER    NEWDPF move IHP_ideal_opt.pdbqt
DOCKED: USER    NEWDPF about 0.035000 0.082000 -0.065000
DOCKED: USER    NEWDPF tran0 14.294219 -0.974723 10.152403
DOCKED: USER    NEWDPF quaternion0 0.893276 -0.020144 0.434219 -0.114482
DOCKED: USER    NEWDPF axisangle0 0.899188 -0.020278 0.437093 -166.852463
DOCKED: USER    NEWDPF quat0 0.899188 -0.020278 0.437093 -166.852463
DOCKED: USER    NEWDPF dihe0 113.31 111.48 139.95 26.18 102.32 75.16 -55.21 -5.28 3.34 28.92 26.84 180.00 -72.53 29.70 177.77 -172.64 -162.71 -145.64 -148.80 -19.23 8.77 -20.81 171.90 -17.02 
DOCKED: USER  keepresnum = 1 
DOCKED: USER  
DOCKED: REMARK  24 active torsions:
DOCKED: REMARK  status: ('A' for Active; 'I' for Inactive)
DOCKED: REMARK    1  A    between atoms: C_1  and  O_7 
DOCKED: REMARK    2  A    between atoms: C_2  and  O_12 
DOCKED: REMARK    3  A    between atoms: C_3  and  O_17 
DOCKED: REMARK    4  A    between atoms: C_4  and  O_22 
DOCKED: REMARK    5  A    between atoms: C_5  and  O_27 
DOCKED: REMARK    6  A    between atoms: C_6  and  O_32 
DOCKED: REMARK    7  A    between atoms: O_7  and  P_8 
DOCKED: REMARK    8  A    between atoms: P_8  and  O_10 
DOCKED: REMARK    9  A    between atoms: P_8  and  O_11 
DOCKED: REMARK   10  A    between atoms: O_12  and  P_13 
DOCKED: REMARK   11  A    between atoms: P_13  and  O_15 
DOCKED: REMARK   12  A    between atoms: P_13  and  O_16 
DOCKED: REMARK   13  A    between atoms: O_17  and  P_18 
DOCKED: REMARK   14  A    between atoms: P_18  and  O_20 
DOCKED: REMARK   15  A    between atoms: P_18  and  O_21 
DOCKED: REMARK   16  A    between atoms: O_22  and  P_23 
DOCKED: REMARK   17  A    between atoms: P_23  and  O_25 
DOCKED: REMARK   18  A    between atoms: P_23  and  O_26 
DOCKED: REMARK   19  A    between atoms: O_27  and  P_28 
DOCKED: REMARK   20  A    between atoms: P_28  and  O_30 
DOCKED: REMARK   21  A    between atoms: P_28  and  O_31 
DOCKED: REMARK   22  A    between atoms: O_32  and  P_33 
DOCKED: REMARK   23  A    between atoms: P_33  and  O_35 
DOCKED: REMARK   24  A    between atoms: P_33  and  O_36 
DOCKED: USER                              x       y       z     vdW  Elec       q    Type
DOCKED: USER                           _______ _______ _______ _____ _____    ______ ____
DOCKED: ROOT
DOCKED: ATOM      1  C   UNL d   1      15.804  -0.207  10.492 -0.01 +0.03    +0.194 C 
DOCKED: ATOM      2  C   UNL d   1      14.852   0.578   9.588 -0.03 +0.06    +0.194 C 
DOCKED: ATOM      3  C   UNL d   1      14.193  -0.323   8.542 -0.09 +0.05    +0.194 C 
DOCKED: ATOM      4  C   UNL d   1      13.529  -1.558   9.144 -0.09 +0.05    +0.194 C 
DOCKED: ATOM      5  C   UNL d   1      14.403  -2.309  10.141 -0.02 +0.03    +0.194 C 
DOCKED: ATOM      6  C   UNL d   1      15.111  -1.401  11.149 -0.01 +0.03    +0.194 C 
DOCKED: ENDROOT
DOCKED: BRANCH   1   7
DOCKED: ATOM      7  O   UNL d   1      16.241   0.661  11.540 +0.00 -0.04    -0.278 OA
DOCKED: BRANCH   7   8
DOCKED: ATOM      8  P   UNL d   1      15.368   0.739  12.876 +0.01 +0.08    +0.473 P 
DOCKED: ATOM      9  O   UNL d   1      13.955   0.293  12.732 -0.01 -0.05    -0.228 OA
DOCKED: BRANCH   8  10
DOCKED: ATOM     10  O   UNL d   1      16.196  -0.125  13.930 +0.00 -0.03    -0.303 OA
DOCKED: ATOM     11  H   UNL d   1      16.497  -0.952  13.510 +0.00 +0.02    +0.222 HD
DOCKED: ENDBRANCH   8  10
DOCKED: BRANCH   8  12
DOCKED: ATOM     12  O   UNL d   1      15.576   2.217  13.420 +0.00 -0.05    -0.303 OA
DOCKED: ATOM     13  H   UNL d   1      15.193   2.904  12.828 +0.01 +0.05    +0.222 HD
DOCKED: ENDBRANCH   8  12
DOCKED: ENDBRANCH   7   8
DOCKED: ENDBRANCH   1   7
DOCKED: BRANCH   2  14
DOCKED: ATOM     14  O   UNL d   1      13.825   1.170  10.393 -0.05 -0.13    -0.278 OA
DOCKED: BRANCH  14  15
DOCKED: ATOM     15  P   UNL d   1      13.834   2.767  10.505 -0.05 +0.33    +0.473 P 
DOCKED: ATOM     16  O   UNL d   1      13.136   3.521   9.417 -0.65 -0.32    -0.228 OA
DOCKED: BRANCH  15  17
DOCKED: ATOM     17  O   UNL d   1      13.223   3.058  11.947 -0.06 -0.20    -0.303 OA
DOCKED: ATOM     18  H   UNL d   1      13.605   2.460  12.618 +0.01 +0.09    +0.222 HD
DOCKED: ENDBRANCH  15  17
DOCKED: BRANCH  15  19
DOCKED: ATOM     19  O   UNL d   1      15.364   3.141  10.725 -0.00 -0.10    -0.303 OA
DOCKED: ATOM     20  H   UNL d   1      15.831   2.459  11.243 +0.01 +0.05    +0.222 HD
DOCKED: ENDBRANCH  15  19
DOCKED: ENDBRANCH  14  15
DOCKED: ENDBRANCH   2  14
DOCKED: BRANCH   6  21
DOCKED: ATOM     21  O   UNL d   1      16.128  -2.187  11.767 +0.00 -0.03    -0.278 OA
DOCKED: BRANCH  21  22
DOCKED: ATOM     22  P   UNL d   1      15.821  -2.944  13.137 +0.00 +0.04    +0.473 P 
DOCKED: ATOM     23  O   UNL d   1      16.957  -3.207  14.067 +0.00 -0.01    -0.228 OA
DOCKED: BRANCH  22  24
DOCKED: ATOM     24  O   UNL d   1      14.652  -2.053  13.747 +0.00 -0.03    -0.303 OA
DOCKED: ATOM     25  H   UNL d   1      14.082  -1.739  12.999 +0.01 +0.03    +0.222 HD
DOCKED: ENDBRANCH  22  24
DOCKED: BRANCH  22  26
DOCKED: ATOM     26  O   UNL d   1      15.020  -4.234  12.624 +0.00 -0.03    -0.303 OA
DOCKED: ATOM     27  H   UNL d   1      14.060  -4.081  12.733 +0.00 +0.02    +0.222 HD
DOCKED: ENDBRANCH  22  26
DOCKED: ENDBRANCH  21  22
DOCKED: ENDBRANCH   6  21
DOCKED: BRANCH   3  28
DOCKED: ATOM     28  O   UNL d   1      13.137   0.418   7.943 -0.17 -0.12    -0.278 OA
DOCKED: BRANCH  28  29
DOCKED: ATOM     29  P   UNL d   1      13.412   1.311   6.653 -0.22 +0.18    +0.473 P 
DOCKED: ATOM     30  O   UNL d   1      12.210   1.687   5.865 -0.49 -0.11    -0.228 OA
DOCKED: BRANCH  29  31
DOCKED: ATOM     31  O   UNL d   1      14.250   2.504   7.312 -0.08 -0.14    -0.303 OA
DOCKED: ATOM     32  H   UNL d   1      14.288   2.360   8.286 +0.05 +0.11    +0.222 HD
DOCKED: ENDBRANCH  29  31
DOCKED: BRANCH  29  33
DOCKED: ATOM     33  O   UNL d   1      14.533   0.470   5.897 -0.18 -0.07    -0.303 OA
DOCKED: ATOM     34  H   UNL d   1      14.210  -0.456   5.771 +0.08 +0.04    +0.222 HD
DOCKED: ENDBRANCH  29  33
DOCKED: ENDBRANCH  28  29
DOCKED: ENDBRANCH   3  28
DOCKED: BRANCH   5  35
DOCKED: ATOM     35  O   UNL d   1      13.516  -3.146  10.880 -0.01 -0.04    -0.278 OA
DOCKED: BRANCH  35  36
DOCKED: ATOM     36  P   UNL d   1      12.289  -2.512  11.679 -0.00 +0.07    +0.473 P 
DOCKED: ATOM     37  O   UNL d   1      12.308  -2.720  13.160 -0.01 -0.02    -0.228 OA
DOCKED: BRANCH  36  38
DOCKED: ATOM     38  O   UNL d   1      12.363  -0.986  11.231 -0.04 -0.08    -0.303 OA
DOCKED: ATOM     39  H   UNL d   1      13.184  -0.585  11.589 +0.02 +0.06    +0.222 HD
DOCKED: ENDBRANCH  36  38
DOCKED: BRANCH  36  40
DOCKED: ATOM     40  O   UNL d   1      11.035  -3.084  10.885 -0.03 -0.04    -0.303 OA
DOCKED: ATOM     41  H   UNL d   1      11.300  -3.487  10.028 +0.06 +0.04    +0.222 HD
DOCKED: ENDBRANCH  36  40
DOCKED: ENDBRANCH  35  36
DOCKED: ENDBRANCH   5  35
DOCKED: BRANCH   4  42
DOCKED: ATOM     42  O   UNL d   1      13.261  -2.455   8.061 -0.13 -0.06    -0.278 OA
DOCKED: BRANCH  42  43
DOCKED: ATOM     43  P   UNL d   1      11.787  -3.041   7.891 -0.21 +0.11    +0.473 P 
DOCKED: ATOM     44  O   UNL d   1      11.535  -4.421   8.393 -0.18 -0.08    -0.228 OA
DOCKED: BRANCH  43  45
DOCKED: ATOM     45  O   UNL d   1      10.886  -1.924   8.578 -0.18 -0.09    -0.303 OA
DOCKED: ATOM     46  H   UNL d   1      11.256  -1.645   9.439 +0.07 +0.06    +0.222 HD
DOCKED: ENDBRANCH  43  45
DOCKED: BRANCH  43  47
DOCKED: ATOM     47  O   UNL d   1      11.475  -2.803   6.337 -0.23 -0.03    -0.303 OA
DOCKED: ATOM     48  H   UNL d   1      12.241  -2.358   5.919 -0.45 -0.03    +0.222 HD
DOCKED: ENDBRANCH  43  47
DOCKED: ENDBRANCH  42  43
DOCKED: ENDBRANCH   4  42
DOCKED: TORSDOF 24
DOCKED: TER
DOCKED: ENDMDL
________________________________________________________________________________


	BEGINNING GENETIC ALGORITHM DOCKING 5 of 100
Run: 5 Seed: 760626098 1399736380 [ Run 5 of 100 GA/GALS ]
Beginning LAMARCKIAN GENETIC ALGORITHM (LGA), with a maximum of 25000000 energy evaluations.

Final-Value: -17.943


	FINAL GENETIC ALGORITHM DOCKED STATE
	_______________________________________________


Detailed state:  trans 17.626 -7.032 0.505 quatxyzw -0.738646 -0.266419 0.455094 -0.419896 center 0.035 0.082 -0.065 ntor 24 -143.3581 19.0448 33.4786 -39.9877 119.2664 72.6725 -64.7784 27.6381 95.8808 -42.1139 -180.0000 -69.1781 29.4040 -179.9494 177.7507 -173.5508 39.1687 -9.3789 -131.5051 -33.6479 22.3367 -28.1313 -172.6345 120.6956
State:	 17.626  -7.032   0.505  -0.814 -0.294  0.501 -130.344   -143.36   19.04   33.48  -39.99  119.27   72.67  -64.78   27.64   95.88  -42.11 -180.00  -69.18   29.40 -179.95  177.75 -173.55   39.17   -9.38 -131.51  -33.65   22.34  -28.13 -172.63  120.70

DOCKED: MODEL        5
DOCKED: USER    Run = 5
DOCKED: USER    DPF = D:/Protein_go_brrr/autodock/final/mut_Y35F/IHP/dock.dpf
DOCKED: USER  
DOCKED: USER    Estimated Free Energy of Binding    =   +2.68 kcal/mol  [=(1)+(2)+(3)-(4)]
DOCKED: USER    
DOCKED: USER    (1) Final Intermolecular Energy     =   -4.48 kcal/mol
DOCKED: USER        vdW + Hbond + desolv Energy     =   -3.95 kcal/mol
DOCKED: USER        Electrostatic Energy            =   -0.52 kcal/mol
DOCKED: USER    (2) Final Total Internal Energy     =  -13.47 kcal/mol
DOCKED: USER    (3) Torsional Free Energy           =   +7.16 kcal/mol
DOCKED: USER    (4) Unbound System's Energy  [=(2)] =  -13.47 kcal/mol
DOCKED: USER    
DOCKED: USER    
DOCKED: USER    NEWDPF move IHP_ideal_opt.pdbqt
DOCKED: USER    NEWDPF about 0.035000 0.082000 -0.065000
DOCKED: USER    NEWDPF tran0 17.625609 -7.032245 0.505329
DOCKED: USER    NEWDPF quaternion0 -0.738646 -0.266419 0.455094 -0.419896
DOCKED: USER    NEWDPF axisangle0 -0.813870 -0.293552 0.501441 -130.344012
DOCKED: USER    NEWDPF quat0 -0.813870 -0.293552 0.501441 -130.344012
DOCKED: USER    NEWDPF dihe0 -143.36 19.04 33.48 -39.99 119.27 72.67 -64.78 27.64 95.88 -42.11 -180.00 -69.18 29.40 -179.95 177.75 -173.55 39.17 -9.38 -131.51 -33.65 22.34 -28.13 -172.63 120.70 
DOCKED: USER  keepresnum = 1 
DOCKED: USER  
DOCKED: REMARK  24 active torsions:
DOCKED: REMARK  status: ('A' for Active; 'I' for Inactive)
DOCKED: REMARK    1  A    between atoms: C_1  and  O_7 
DOCKED: REMARK    2  A    between atoms: C_2  and  O_12 
DOCKED: REMARK    3  A    between atoms: C_3  and  O_17 
DOCKED: REMARK    4  A    between atoms: C_4  and  O_22 
DOCKED: REMARK    5  A    between atoms: C_5  and  O_27 
DOCKED: REMARK    6  A    between atoms: C_6  and  O_32 
DOCKED: REMARK    7  A    between atoms: O_7  and  P_8 
DOCKED: REMARK    8  A    between atoms: P_8  and  O_10 
DOCKED: REMARK    9  A    between atoms: P_8  and  O_11 
DOCKED: REMARK   10  A    between atoms: O_12  and  P_13 
DOCKED: REMARK   11  A    between atoms: P_13  and  O_15 
DOCKED: REMARK   12  A    between atoms: P_13  and  O_16 
DOCKED: REMARK   13  A    between atoms: O_17  and  P_18 
DOCKED: REMARK   14  A    between atoms: P_18  and  O_20 
DOCKED: REMARK   15  A    between atoms: P_18  and  O_21 
DOCKED: REMARK   16  A    between atoms: O_22  and  P_23 
DOCKED: REMARK   17  A    between atoms: P_23  and  O_25 
DOCKED: REMARK   18  A    between atoms: P_23  and  O_26 
DOCKED: REMARK   19  A    between atoms: O_27  and  P_28 
DOCKED: REMARK   20  A    between atoms: P_28  and  O_30 
DOCKED: REMARK   21  A    between atoms: P_28  and  O_31 
DOCKED: REMARK   22  A    between atoms: O_32  and  P_33 
DOCKED: REMARK   23  A    between atoms: P_33  and  O_35 
DOCKED: REMARK   24  A    between atoms: P_33  and  O_36 
DOCKED: USER                              x       y       z     vdW  Elec       q    Type
DOCKED: USER                           _______ _______ _______ _____ _____    ______ ____
DOCKED: ROOT
DOCKED: ATOM      1  C   UNL d   1      17.463  -5.313   0.525 -0.19 +0.04    +0.194 C 
DOCKED: ATOM      2  C   UNL d   1      17.230  -6.014   1.865 -0.09 +0.02    +0.194 C 
DOCKED: ATOM      3  C   UNL d   1      16.386  -7.280   1.702 -0.07 +0.01    +0.194 C 
DOCKED: ATOM      4  C   UNL d   1      16.928  -8.232   0.639 -0.03 +0.02    +0.194 C 
DOCKED: ATOM      5  C   UNL d   1      17.282  -7.554  -0.678 -0.07 +0.05    +0.194 C 
DOCKED: ATOM      6  C   UNL d   1      18.073  -6.255  -0.513 -0.12 +0.06    +0.194 C 
DOCKED: ENDROOT
DOCKED: BRANCH   1   7
DOCKED: ATOM      7  O   UNL d   1      18.394  -4.248   0.734 -0.19 -0.06    -0.278 OA
DOCKED: BRANCH   7   8
DOCKED: ATOM      8  P   UNL d   1      19.890  -4.434   0.207 -0.00 +0.11    +0.473 P 
DOCKED: ATOM      9  O   UNL d   1      20.086  -4.165  -1.243 -0.16 -0.07    -0.228 OA
DOCKED: BRANCH   8  10
DOCKED: ATOM     10  O   UNL d   1      20.753  -3.475   1.146 -0.07 -0.06    -0.303 OA
DOCKED: ATOM     11  H   UNL d   1      20.640  -3.740   2.077 +0.04 +0.03    +0.222 HD
DOCKED: ENDBRANCH   8  10
DOCKED: BRANCH   8  12
DOCKED: ATOM     12  O   UNL d   1      20.330  -5.875   0.711 -0.02 -0.04    -0.303 OA
DOCKED: ATOM     13  H   UNL d   1      19.848  -6.165   1.518 +0.03 +0.03    +0.222 HD
DOCKED: ENDBRANCH   8  12
DOCKED: ENDBRANCH   7   8
DOCKED: ENDBRANCH   1   7
DOCKED: BRANCH   2  14
DOCKED: ATOM     14  O   UNL d   1      18.497  -6.379   2.427 -0.01 -0.03    -0.278 OA
DOCKED: BRANCH  14  15
DOCKED: ATOM     15  P   UNL d   1      19.103  -5.388   3.530 -0.00 +0.05    +0.473 P 
DOCKED: ATOM     16  O   UNL d   1      20.477  -4.854   3.271 -0.02 -0.02    -0.228 OA
DOCKED: BRANCH  15  17
DOCKED: ATOM     17  O   UNL d   1      18.008  -4.239   3.661 -0.06 -0.04    -0.303 OA
DOCKED: ATOM     18  H   UNL d   1      17.899  -3.759   2.818 +0.07 +0.03    +0.222 HD
DOCKED: ENDBRANCH  15  17
DOCKED: BRANCH  15  19
DOCKED: ATOM     19  O   UNL d   1      18.916  -6.166   4.905 -0.00 -0.03    -0.303 OA
DOCKED: ATOM     20  H   UNL d   1      18.135  -5.849   5.395 +0.03 +0.03    +0.222 HD
DOCKED: ENDBRANCH  15  19
DOCKED: ENDBRANCH  14  15
DOCKED: ENDBRANCH   2  14
DOCKED: BRANCH   6  21
DOCKED: ATOM     21  O   UNL d   1      18.026  -5.581  -1.769 -0.12 -0.19    -0.278 OA
DOCKED: BRANCH  21  22
DOCKED: ATOM     22  P   UNL d   1      19.005  -6.029  -2.946 -0.04 +0.45    +0.473 P 
DOCKED: ATOM     23  O   UNL d   1      19.408  -5.007  -3.955 -0.72 -0.28    -0.228 OA
DOCKED: BRANCH  22  24
DOCKED: ATOM     24  O   UNL d   1      20.211  -6.679  -2.136 -0.03 -0.10    -0.303 OA
DOCKED: ATOM     25  H   UNL d   1      19.838  -7.362  -1.522 +0.03 +0.06    +0.222 HD
DOCKED: ENDBRANCH  22  24
DOCKED: BRANCH  22  26
DOCKED: ATOM     26  O   UNL d   1      18.255  -7.324  -3.518 -0.34 -0.38    -0.303 OA
DOCKED: ATOM     27  H   UNL d   1      18.695  -8.129  -3.177 +0.02 +0.13    +0.222 HD
DOCKED: ENDBRANCH  22  26
DOCKED: ENDBRANCH  21  22
DOCKED: ENDBRANCH   6  21
DOCKED: BRANCH   3  28
DOCKED: ATOM     28  O   UNL d   1      16.457  -8.001   2.926 -0.04 -0.01    -0.278 OA
DOCKED: BRANCH  28  29
DOCKED: ATOM     29  P   UNL d   1      15.509  -7.611   4.145 -0.10 +0.10    +0.473 P 
DOCKED: ATOM     30  O   UNL d   1      15.330  -8.663   5.179 -0.30 -0.11    -0.228 OA
DOCKED: BRANCH  29  31
DOCKED: ATOM     31  O   UNL d   1      16.202  -6.246   4.611 -0.09 -0.08    -0.303 OA
DOCKED: ATOM     32  H   UNL d   1      17.082  -6.175   4.175 +0.05 +0.04    +0.222 HD
DOCKED: ENDBRANCH  29  31
DOCKED: BRANCH  29  33
DOCKED: ATOM     33  O   UNL d   1      14.197  -7.104   3.400 -0.23 +0.01    -0.303 OA
DOCKED: ATOM     34  H   UNL d   1      13.613  -7.879   3.214 -0.17 -0.18    +0.222 HD
DOCKED: ENDBRANCH  29  33
DOCKED: ENDBRANCH  28  29
DOCKED: ENDBRANCH   3  28
DOCKED: BRANCH   5  35
DOCKED: ATOM     35  O   UNL d   1      18.123  -8.472  -1.373 -0.02 -0.07    -0.278 OA
DOCKED: BRANCH  35  36
DOCKED: ATOM     36  P   UNL d   1      19.262  -9.269  -0.591 +0.01 +0.05    +0.473 P 
DOCKED: ATOM     37  O   UNL d   1      18.814 -10.511   0.112 +0.00 -0.01    -0.228 OA
DOCKED: BRANCH  36  38
DOCKED: ATOM     38  O   UNL d   1      20.335  -9.518  -1.742 +0.00 -0.03    -0.303 OA
DOCKED: ATOM     39  H   UNL d   1      20.240  -8.821  -2.425 +0.01 +0.04    +0.222 HD
DOCKED: ENDBRANCH  36  38
DOCKED: BRANCH  36  40
DOCKED: ATOM     40  O   UNL d   1      19.920  -8.131   0.305 -0.00 -0.03    -0.303 OA
DOCKED: ATOM     41  H   UNL d   1      20.594  -7.618  -0.195 +0.02 +0.03    +0.222 HD
DOCKED: ENDBRANCH  36  40
DOCKED: ENDBRANCH  35  36
DOCKED: ENDBRANCH   5  35
DOCKED: BRANCH   4  42
DOCKED: ATOM     42  O   UNL d   1      15.889  -9.176   0.360 -0.03 +0.00    -0.278 OA
DOCKED: BRANCH  42  43
DOCKED: ATOM     43  P   UNL d   1      14.434  -8.924   0.964 -0.05 -0.07    +0.473 P 
DOCKED: ATOM     44  O   UNL d   1      13.958  -7.514   1.042 -0.25 +0.02    -0.228 OA
DOCKED: BRANCH  43  45
DOCKED: ATOM     45  O   UNL d   1      13.517  -9.872   0.075 -0.18 +0.05    -0.303 OA
DOCKED: ATOM     46  H   UNL d   1      13.220 -10.657   0.577 +0.08 -0.05    +0.222 HD
DOCKED: ENDBRANCH  43  45
DOCKED: BRANCH  43  47
DOCKED: ATOM     47  O   UNL d   1      14.472  -9.719   2.356 -0.07 +0.17    -0.303 OA
DOCKED: ATOM     48  H   UNL d   1      14.476  -9.076   3.095 -0.45 -0.19    +0.222 HD
DOCKED: ENDBRANCH  43  47
DOCKED: ENDBRANCH  42  43
DOCKED: ENDBRANCH   4  42
DOCKED: TORSDOF 24
DOCKED: TER
DOCKED: ENDMDL
________________________________________________________________________________


	BEGINNING GENETIC ALGORITHM DOCKING 6 of 100
Run: 6 Seed: 555088795 440907231 [ Run 6 of 100 GA/GALS ]
Beginning LAMARCKIAN GENETIC ALGORITHM (LGA), with a maximum of 25000000 energy evaluations.

Final-Value: -18.784


	FINAL GENETIC ALGORITHM DOCKED STATE
	_______________________________________________


Detailed state:  trans -6.583 -13.924 -14.580 quatxyzw 0.647677 0.595771 0.085345 0.467213 center 0.035 0.082 -0.065 ntor 24 179.9954 22.8641 92.3913 -39.1618 148.8584 103.2867 19.5740 -144.5217 116.3527 -45.2509 18.1846 158.1356 38.4468 81.9320 84.8988 151.2562 99.6811 167.6491 6.7870 -47.3847 -40.2603 -53.0145 154.0697 -12.3604
State:	 -6.583 -13.924 -14.580   0.733  0.674  0.097 124.293    180.00   22.86   92.39  -39.16  148.86  103.29   19.57 -144.52  116.35  -45.25   18.18  158.14   38.45   81.93   84.90  151.26   99.68  167.65    6.79  -47.38  -40.26  -53.01  154.07  -12.36

DOCKED: MODEL        6
DOCKED: USER    Run = 6
DOCKED: USER    DPF = D:/Protein_go_brrr/autodock/final/mut_Y35F/IHP/dock.dpf
DOCKED: USER  
DOCKED: USER    Estimated Free Energy of Binding    =   +2.74 kcal/mol  [=(1)+(2)+(3)-(4)]
DOCKED: USER    
DOCKED: USER    (1) Final Intermolecular Energy     =   -4.42 kcal/mol
DOCKED: USER        vdW + Hbond + desolv Energy     =   -4.27 kcal/mol
DOCKED: USER        Electrostatic Energy            =   -0.14 kcal/mol
DOCKED: USER    (2) Final Total Internal Energy     =  -14.37 kcal/mol
DOCKED: USER    (3) Torsional Free Energy           =   +7.16 kcal/mol
DOCKED: USER    (4) Unbound System's Energy  [=(2)] =  -14.37 kcal/mol
DOCKED: USER    
DOCKED: USER    
DOCKED: USER    NEWDPF move IHP_ideal_opt.pdbqt
DOCKED: USER    NEWDPF about 0.035000 0.082000 -0.065000
DOCKED: USER    NEWDPF tran0 -6.582519 -13.923859 -14.579540
DOCKED: USER    NEWDPF quaternion0 0.647677 0.595771 0.085345 0.467213
DOCKED: USER    NEWDPF axisangle0 0.732546 0.673839 0.096528 124.292933
DOCKED: USER    NEWDPF quat0 0.732546 0.673839 0.096528 124.292933
DOCKED: USER    NEWDPF dihe0 180.00 22.86 92.39 -39.16 148.86 103.29 19.57 -144.52 116.35 -45.25 18.18 158.14 38.45 81.93 84.90 151.26 99.68 167.65 6.79 -47.38 -40.26 -53.01 154.07 -12.36 
DOCKED: USER  keepresnum = 1 
DOCKED: USER  
DOCKED: REMARK  24 active torsions:
DOCKED: REMARK  status: ('A' for Active; 'I' for Inactive)
DOCKED: REMARK    1  A    between atoms: C_1  and  O_7 
DOCKED: REMARK    2  A    between atoms: C_2  and  O_12 
DOCKED: REMARK    3  A    between atoms: C_3  and  O_17 
DOCKED: REMARK    4  A    between atoms: C_4  and  O_22 
DOCKED: REMARK    5  A    between atoms: C_5  and  O_27 
DOCKED: REMARK    6  A    between atoms: C_6  and  O_32 
DOCKED: REMARK    7  A    between atoms: O_7  and  P_8 
DOCKED: REMARK    8  A    between atoms: P_8  and  O_10 
DOCKED: REMARK    9  A    between atoms: P_8  and  O_11 
DOCKED: REMARK   10  A    between atoms: O_12  and  P_13 
DOCKED: REMARK   11  A    between atoms: P_13  and  O_15 
DOCKED: REMARK   12  A    between atoms: P_13  and  O_16 
DOCKED: REMARK   13  A    between atoms: O_17  and  P_18 
DOCKED: REMARK   14  A    between atoms: P_18  and  O_20 
DOCKED: REMARK   15  A    between atoms: P_18  and  O_21 
DOCKED: REMARK   16  A    between atoms: O_22  and  P_23 
DOCKED: REMARK   17  A    between atoms: P_23  and  O_25 
DOCKED: REMARK   18  A    between atoms: P_23  and  O_26 
DOCKED: REMARK   19  A    between atoms: O_27  and  P_28 
DOCKED: REMARK   20  A    between atoms: P_28  and  O_30 
DOCKED: REMARK   21  A    between atoms: P_28  and  O_31 
DOCKED: REMARK   22  A    between atoms: O_32  and  P_33 
DOCKED: REMARK   23  A    between atoms: P_33  and  O_35 
DOCKED: REMARK   24  A    between atoms: P_33  and  O_36 
DOCKED: USER                              x       y       z     vdW  Elec       q    Type
DOCKED: USER                           _______ _______ _______ _____ _____    ______ ____
DOCKED: ROOT
DOCKED: ATOM      1  C   UNL d   1      -7.346 -12.628 -13.730 -0.10 -0.01    +0.194 C 
DOCKED: ATOM      2  C   UNL d   1      -8.210 -13.870 -13.956 -0.10 +0.01    +0.194 C 
DOCKED: ATOM      3  C   UNL d   1      -8.049 -14.422 -15.374 -0.04 +0.02    +0.194 C 
DOCKED: ATOM      4  C   UNL d   1      -6.592 -14.653 -15.768 -0.06 +0.03    +0.194 C 
DOCKED: ATOM      5  C   UNL d   1      -5.672 -13.481 -15.454 -0.05 +0.01    +0.194 C 
DOCKED: ATOM      6  C   UNL d   1      -5.876 -12.889 -14.058 -0.11 -0.00    +0.194 C 
DOCKED: ENDROOT
DOCKED: BRANCH   1   7
DOCKED: ATOM      7  O   UNL d   1      -7.419 -12.279 -12.346 -0.18 +0.05    -0.278 OA
DOCKED: BRANCH   7   8
DOCKED: ATOM      8  P   UNL d   1      -8.084 -10.882 -11.949 -0.18 -0.10    +0.473 P 
DOCKED: ATOM      9  O   UNL d   1      -9.551 -10.929 -11.703 -0.29 +0.02    -0.228 OA
DOCKED: BRANCH   8  10
DOCKED: ATOM     10  O   UNL d   1      -7.249 -10.404 -10.677 -0.09 +0.14    -0.303 OA
DOCKED: ATOM     11  H   UNL d   1      -6.379 -10.844 -10.672 -0.30 -0.10    +0.222 HD
DOCKED: ENDBRANCH   8  10
DOCKED: BRANCH   8  12
DOCKED: ATOM     12  O   UNL d   1      -7.601  -9.862 -13.067 -0.06 +0.03    -0.303 OA
DOCKED: ATOM     13  H   UNL d   1      -6.778 -10.150 -13.522 +0.06 -0.02    +0.222 HD
DOCKED: ENDBRANCH   8  12
DOCKED: ENDBRANCH   7   8
DOCKED: ENDBRANCH   1   7
DOCKED: BRANCH   2  14
DOCKED: ATOM     14  O   UNL d   1      -7.820 -14.886 -13.023 -0.18 -0.02    -0.278 OA
DOCKED: BRANCH  14  15
DOCKED: ATOM     15  P   UNL d   1      -8.479 -14.810 -11.566 -0.32 -0.01    +0.473 P 
DOCKED: ATOM     16  O   UNL d   1      -8.936 -16.104 -10.967 -0.21 +0.02    -0.228 OA
DOCKED: BRANCH  15  17
DOCKED: ATOM     17  O   UNL d   1      -7.377 -14.076 -10.680 -0.39 +0.10    -0.303 OA
DOCKED: ATOM     18  H   UNL d   1      -6.569 -13.900 -11.198 -0.29 -0.09    +0.222 HD
DOCKED: ENDBRANCH  15  17
DOCKED: BRANCH  15  19
DOCKED: ATOM     19  O   UNL d   1      -9.592 -13.681 -11.692 -0.24 -0.02    -0.303 OA
DOCKED: ATOM     20  H   UNL d   1      -9.278 -12.825 -11.346 +0.06 -0.01    +0.222 HD
DOCKED: ENDBRANCH  15  19
DOCKED: ENDBRANCH  14  15
DOCKED: ENDBRANCH   2  14
DOCKED: BRANCH   6  21
DOCKED: ATOM     21  O   UNL d   1      -5.214 -11.626 -14.045 -0.05 +0.01    -0.278 OA
DOCKED: BRANCH  21  22
DOCKED: ATOM     22  P   UNL d   1      -4.447 -11.148 -12.730 -0.15 -0.05    +0.473 P 
DOCKED: ATOM     23  O   UNL d   1      -2.966 -10.983 -12.799 -0.24 +0.03    -0.228 OA
DOCKED: BRANCH  22  24
DOCKED: ATOM     24  O   UNL d   1      -5.249  -9.827 -12.348 -0.13 +0.03    -0.303 OA
DOCKED: ATOM     25  H   UNL d   1      -6.059 -10.094 -11.843 +0.11 -0.04    +0.222 HD
DOCKED: ENDBRANCH  22  24
DOCKED: BRANCH  22  26
DOCKED: ATOM     26  O   UNL d   1      -4.988 -12.191 -11.640 -0.26 +0.09    -0.303 OA
DOCKED: ATOM     27  H   UNL d   1      -5.927 -11.995 -11.445 +0.05 -0.08    +0.222 HD
DOCKED: ENDBRANCH  22  26
DOCKED: ENDBRANCH  21  22
DOCKED: ENDBRANCH   6  21
DOCKED: BRANCH   3  28
DOCKED: ATOM     28  O   UNL d   1      -8.656 -15.708 -15.404 -0.03 -0.04    -0.278 OA
DOCKED: BRANCH  28  29
DOCKED: ATOM     29  P   UNL d   1     -10.191 -15.882 -15.014 -0.00 +0.05    +0.473 P 
DOCKED: ATOM     30  O   UNL d   1     -11.038 -16.555 -16.032 -0.01 -0.02    -0.228 OA
DOCKED: BRANCH  29  31
DOCKED: ATOM     31  O   UNL d   1     -10.038 -16.612 -13.598 -0.04 -0.04    -0.303 OA
DOCKED: ATOM     32  H   UNL d   1      -9.695 -15.960 -12.944 +0.07 +0.02    +0.222 HD
DOCKED: ENDBRANCH  29  31
DOCKED: BRANCH  29  33
DOCKED: ATOM     33  O   UNL d   1     -10.601 -14.399 -14.603 -0.03 -0.02    -0.303 OA
DOCKED: ATOM     34  H   UNL d   1     -10.370 -14.254 -13.652 +0.06 +0.02    +0.222 HD
DOCKED: ENDBRANCH  29  33
DOCKED: ENDBRANCH  28  29
DOCKED: ENDBRANCH   3  28
DOCKED: BRANCH   5  35
DOCKED: ATOM     35  O   UNL d   1      -4.347 -14.007 -15.498 -0.04 -0.03    -0.278 OA
DOCKED: BRANCH  35  36
DOCKED: ATOM     36  P   UNL d   1      -3.799 -14.908 -14.301 -0.13 +0.08    +0.473 P 
DOCKED: ATOM     37  O   UNL d   1      -2.891 -16.028 -14.701 -0.18 -0.06    -0.228 OA
DOCKED: BRANCH  36  38
DOCKED: ATOM     38  O   UNL d   1      -3.121 -13.820 -13.357 -0.06 -0.03    -0.303 OA
DOCKED: ATOM     39  H   UNL d   1      -3.732 -13.060 -13.253 +0.09 -0.00    +0.222 HD
DOCKED: ENDBRANCH  36  38
DOCKED: BRANCH  36  40
DOCKED: ATOM     40  O   UNL d   1      -5.135 -15.302 -13.534 -0.19 -0.05    -0.303 OA
DOCKED: ATOM     41  H   UNL d   1      -5.386 -14.623 -12.868 +0.06 -0.00    +0.222 HD
DOCKED: ENDBRANCH  36  40
DOCKED: ENDBRANCH  35  36
DOCKED: ENDBRANCH   5  35
DOCKED: BRANCH   4  42
DOCKED: ATOM     42  O   UNL d   1      -6.571 -14.838 -17.187 -0.01 -0.04    -0.278 OA
DOCKED: BRANCH  42  43
DOCKED: ATOM     43  P   UNL d   1      -5.937 -16.175 -17.781 -0.02 +0.12    +0.473 P 
DOCKED: ATOM     44  O   UNL d   1      -5.236 -16.080 -19.092 -0.01 -0.04    -0.228 OA
DOCKED: BRANCH  43  45
DOCKED: ATOM     45  O   UNL d   1      -5.017 -16.686 -16.587 -0.09 -0.13    -0.303 OA
DOCKED: ATOM     46  H   UNL d   1      -4.384 -15.997 -16.303 +0.03 +0.07    +0.222 HD
DOCKED: ENDBRANCH  43  45
DOCKED: BRANCH  43  47
DOCKED: ATOM     47  O   UNL d   1      -7.155 -17.216 -17.722 -0.03 -0.10    -0.303 OA
DOCKED: ATOM     48  H   UNL d   1      -7.799 -16.920 -17.046 +0.02 +0.06    +0.222 HD
DOCKED: ENDBRANCH  43  47
DOCKED: ENDBRANCH  42  43
DOCKED: ENDBRANCH   4  42
DOCKED: TORSDOF 24
DOCKED: TER
DOCKED: ENDMDL
________________________________________________________________________________


	BEGINNING GENETIC ALGORITHM DOCKING 7 of 100
Run: 7 Seed: 1989655507 1653741414 [ Run 7 of 100 GA/GALS ]
Beginning LAMARCKIAN GENETIC ALGORITHM (LGA), with a maximum of 25000000 energy evaluations.

Final-Value: -17.955


	FINAL GENETIC ALGORITHM DOCKED STATE
	_______________________________________________


Detailed state:  trans -5.595 2.687 -11.948 quatxyzw 0.017404 -0.987704 0.126218 -0.090592 center 0.035 0.082 -0.065 ntor 24 -159.9812 175.0546 -116.6041 103.9566 -83.0307 -159.7077 -110.9087 25.9209 6.6589 -1.9413 155.8204 174.9159 32.8410 -72.9561 172.7771 52.8601 -116.7450 93.6769 -135.1155 -33.3182 -170.8823 155.3967 138.4284 -41.3715
State:	 -5.595   2.687 -11.948   0.017 -0.992  0.127 -169.605   -159.98  175.05 -116.60  103.96  -83.03 -159.71 -110.91   25.92    6.66   -1.94  155.82  174.92   32.84  -72.96  172.78   52.86 -116.74   93.68 -135.12  -33.32 -170.88  155.40  138.43  -41.37

DOCKED: MODEL        7
DOCKED: USER    Run = 7
DOCKED: USER    DPF = D:/Protein_go_brrr/autodock/final/mut_Y35F/IHP/dock.dpf
DOCKED: USER  
DOCKED: USER    Estimated Free Energy of Binding    =   +2.81 kcal/mol  [=(1)+(2)+(3)-(4)]
DOCKED: USER    
DOCKED: USER    (1) Final Intermolecular Energy     =   -4.34 kcal/mol
DOCKED: USER        vdW + Hbond + desolv Energy     =   -4.19 kcal/mol
DOCKED: USER        Electrostatic Energy            =   -0.15 kcal/mol
DOCKED: USER    (2) Final Total Internal Energy     =  -13.61 kcal/mol
DOCKED: USER    (3) Torsional Free Energy           =   +7.16 kcal/mol
DOCKED: USER    (4) Unbound System's Energy  [=(2)] =  -13.61 kcal/mol
DOCKED: USER    
DOCKED: USER    
DOCKED: USER    NEWDPF move IHP_ideal_opt.pdbqt
DOCKED: USER    NEWDPF about 0.035000 0.082000 -0.065000
DOCKED: USER    NEWDPF tran0 -5.595200 2.687195 -11.947909
DOCKED: USER    NEWDPF quaternion0 0.017404 -0.987704 0.126218 -0.090592
DOCKED: USER    NEWDPF axisangle0 0.017476 -0.991782 0.126739 -169.604638
DOCKED: USER    NEWDPF quat0 0.017476 -0.991782 0.126739 -169.604638
DOCKED: USER    NEWDPF dihe0 -159.98 175.05 -116.60 103.96 -83.03 -159.71 -110.91 25.92 6.66 -1.94 155.82 174.92 32.84 -72.96 172.78 52.86 -116.74 93.68 -135.12 -33.32 -170.88 155.40 138.43 -41.37 
DOCKED: USER  keepresnum = 1 
DOCKED: USER  
DOCKED: REMARK  24 active torsions:
DOCKED: REMARK  status: ('A' for Active; 'I' for Inactive)
DOCKED: REMARK    1  A    between atoms: C_1  and  O_7 
DOCKED: REMARK    2  A    between atoms: C_2  and  O_12 
DOCKED: REMARK    3  A    between atoms: C_3  and  O_17 
DOCKED: REMARK    4  A    between atoms: C_4  and  O_22 
DOCKED: REMARK    5  A    between atoms: C_5  and  O_27 
DOCKED: REMARK    6  A    between atoms: C_6  and  O_32 
DOCKED: REMARK    7  A    between atoms: O_7  and  P_8 
DOCKED: REMARK    8  A    between atoms: P_8  and  O_10 
DOCKED: REMARK    9  A    between atoms: P_8  and  O_11 
DOCKED: REMARK   10  A    between atoms: O_12  and  P_13 
DOCKED: REMARK   11  A    between atoms: P_13  and  O_15 
DOCKED: REMARK   12  A    between atoms: P_13  and  O_16 
DOCKED: REMARK   13  A    between atoms: O_17  and  P_18 
DOCKED: REMARK   14  A    between atoms: P_18  and  O_20 
DOCKED: REMARK   15  A    between atoms: P_18  and  O_21 
DOCKED: REMARK   16  A    between atoms: O_22  and  P_23 
DOCKED: REMARK   17  A    between atoms: P_23  and  O_25 
DOCKED: REMARK   18  A    between atoms: P_23  and  O_26 
DOCKED: REMARK   19  A    between atoms: O_27  and  P_28 
DOCKED: REMARK   20  A    between atoms: P_28  and  O_30 
DOCKED: REMARK   21  A    between atoms: P_28  and  O_31 
DOCKED: REMARK   22  A    between atoms: O_32  and  P_33 
DOCKED: REMARK   23  A    between atoms: P_33  and  O_35 
DOCKED: REMARK   24  A    between atoms: P_33  and  O_36 
DOCKED: USER                              x       y       z     vdW  Elec       q    Type
DOCKED: USER                           _______ _______ _______ _____ _____    ______ ____
DOCKED: ROOT
DOCKED: ATOM      1  C   UNL d   1      -6.914   1.614 -12.252 -0.00 +0.01    +0.194 C 
DOCKED: ATOM      2  C   UNL d   1      -5.577   0.944 -11.932 -0.04 +0.01    +0.194 C 
DOCKED: ATOM      3  C   UNL d   1      -4.414   1.624 -12.658 -0.04 +0.01    +0.194 C 
DOCKED: ATOM      4  C   UNL d   1      -4.370   3.134 -12.439 -0.04 +0.01    +0.194 C 
DOCKED: ATOM      5  C   UNL d   1      -5.711   3.829 -12.636 -0.01 +0.02    +0.194 C 
DOCKED: ATOM      6  C   UNL d   1      -6.884   3.115 -11.962 -0.01 +0.02    +0.194 C 
DOCKED: ENDROOT
DOCKED: BRANCH   1   7
DOCKED: ATOM      7  O   UNL d   1      -7.915   1.037 -11.410 -0.01 -0.02    -0.278 OA
DOCKED: BRANCH   7   8
DOCKED: ATOM      8  P   UNL d   1      -8.403   1.865 -10.134 -0.04 +0.05    +0.473 P 
DOCKED: ATOM      9  O   UNL d   1      -9.471   2.867 -10.403 -0.01 -0.03    -0.228 OA
DOCKED: BRANCH   8  10
DOCKED: ATOM     10  O   UNL d   1      -8.843   0.743  -9.090 -0.11 -0.02    -0.303 OA
DOCKED: ATOM     11  H   UNL d   1      -8.192   0.016  -9.098 +0.06 +0.02    +0.222 HD
DOCKED: ENDBRANCH   8  10
DOCKED: BRANCH   8  12
DOCKED: ATOM     12  O   UNL d   1      -7.072   2.430  -9.475 -0.11 -0.05    -0.303 OA
DOCKED: ATOM     13  H   UNL d   1      -7.113   3.395  -9.290 +0.05 +0.08    +0.222 HD
DOCKED: ENDBRANCH   8  12
DOCKED: ENDBRANCH   7   8
DOCKED: ENDBRANCH   1   7
DOCKED: BRANCH   2  14
DOCKED: ATOM     14  O   UNL d   1      -5.342   1.021 -10.521 -0.12 -0.03    -0.278 OA
DOCKED: BRANCH  14  15
DOCKED: ATOM     15  P   UNL d   1      -5.710  -0.279  -9.661 -0.19 +0.05    +0.473 P 
DOCKED: ATOM     16  O   UNL d   1      -6.617  -1.278 -10.309 -0.14 -0.02    -0.228 OA
DOCKED: BRANCH  15  17
DOCKED: ATOM     17  O   UNL d   1      -4.295  -0.895  -9.265 -0.21 +0.01    -0.303 OA
DOCKED: ATOM     18  H   UNL d   1      -4.334  -1.332  -8.392 -0.35 -0.03    +0.222 HD
DOCKED: ENDBRANCH  15  17
DOCKED: BRANCH  15  19
DOCKED: ATOM     19  O   UNL d   1      -6.210   0.297  -8.265 -0.49 -0.06    -0.303 OA
DOCKED: ATOM     20  H   UNL d   1      -6.814   1.053  -8.383 +0.07 +0.01    +0.222 HD
DOCKED: ENDBRANCH  15  19
DOCKED: ENDBRANCH  14  15
DOCKED: ENDBRANCH   2  14
DOCKED: BRANCH   6  21
DOCKED: ATOM     21  O   UNL d   1      -8.076   3.672 -12.511 +0.01 -0.03    -0.278 OA
DOCKED: BRANCH  21  22
DOCKED: ATOM     22  P   UNL d   1      -8.684   3.069 -13.857 +0.01 +0.02    +0.473 P 
DOCKED: ATOM     23  O   UNL d   1      -9.575   3.939 -14.679 +0.00 -0.01    -0.228 OA
DOCKED: BRANCH  22  24
DOCKED: ATOM     24  O   UNL d   1      -7.376   2.558 -14.605 +0.00 -0.01    -0.303 OA
DOCKED: ATOM     25  H   UNL d   1      -7.530   2.632 -15.581 +0.00 +0.00    +0.222 HD
DOCKED: ENDBRANCH  22  24
DOCKED: BRANCH  22  26
DOCKED: ATOM     26  O   UNL d   1      -9.327   1.696 -13.337 +0.01 -0.01    -0.303 OA
DOCKED: ATOM     27  H   UNL d   1      -9.555   1.785 -12.389 +0.01 +0.01    +0.222 HD
DOCKED: ENDBRANCH  22  26
DOCKED: ENDBRANCH  21  22
DOCKED: ENDBRANCH   6  21
DOCKED: BRANCH   3  28
DOCKED: ATOM     28  O   UNL d   1      -3.207   1.125 -12.094 -0.07 -0.01    -0.278 OA
DOCKED: BRANCH  28  29
DOCKED: ATOM     29  P   UNL d   1      -2.489   1.910 -10.909 -0.18 +0.04    +0.473 P 
DOCKED: ATOM     30  O   UNL d   1      -3.379   2.738 -10.056 -0.25 -0.05    -0.228 OA
DOCKED: BRANCH  29  31
DOCKED: ATOM     31  O   UNL d   1      -1.721   0.699 -10.198 -0.30 -0.01    -0.303 OA
DOCKED: ATOM     32  H   UNL d   1      -2.386   0.032  -9.910 +0.05 -0.01    +0.222 HD
DOCKED: ENDBRANCH  29  31
DOCKED: BRANCH  29  33
DOCKED: ATOM     33  O   UNL d   1      -1.316   2.668 -11.674 -0.17 -0.01    -0.303 OA
DOCKED: ATOM     34  H   UNL d   1      -1.667   3.517 -12.040 +0.08 +0.01    +0.222 HD
DOCKED: ENDBRANCH  29  33
DOCKED: ENDBRANCH  28  29
DOCKED: ENDBRANCH   3  28
DOCKED: BRANCH   5  35
DOCKED: ATOM     35  O   UNL d   1      -5.581   5.105 -12.012 -0.02 -0.04    -0.278 OA
DOCKED: BRANCH  35  36
DOCKED: ATOM     36  P   UNL d   1      -5.981   5.295 -10.480 -0.09 +0.22    +0.473 P 
DOCKED: ATOM     37  O   UNL d   1      -7.448   5.271 -10.189 -0.59 -0.14    -0.228 OA
DOCKED: BRANCH  36  38
DOCKED: ATOM     38  O   UNL d   1      -5.156   4.127  -9.780 -0.25 -0.14    -0.303 OA
DOCKED: ATOM     39  H   UNL d   1      -5.479   3.262 -10.111 +0.07 +0.06    +0.222 HD
DOCKED: ENDBRANCH  36  38
DOCKED: BRANCH  36  40
DOCKED: ATOM     40  O   UNL d   1      -5.187   6.615 -10.083 -0.55 -0.18    -0.303 OA
DOCKED: ATOM     41  H   UNL d   1      -4.269   6.608 -10.433 +0.08 +0.06    +0.222 HD
DOCKED: ENDBRANCH  36  40
DOCKED: ENDBRANCH  35  36
DOCKED: ENDBRANCH   5  35
DOCKED: BRANCH   4  42
DOCKED: ATOM     42  O   UNL d   1      -3.471   3.668 -13.417 -0.03 -0.01    -0.278 OA
DOCKED: BRANCH  42  43
DOCKED: ATOM     43  P   UNL d   1      -2.693   5.022 -13.092 -0.06 +0.01    +0.473 P 
DOCKED: ATOM     44  O   UNL d   1      -1.264   5.108 -13.503 -0.16 +0.00    -0.228 OA
DOCKED: BRANCH  43  45
DOCKED: ATOM     45  O   UNL d   1      -3.628   6.129 -13.749 -0.04 -0.01    -0.303 OA
DOCKED: ATOM     46  H   UNL d   1      -4.367   6.371 -13.156 +0.04 +0.01    +0.222 HD
DOCKED: ENDBRANCH  43  45
DOCKED: BRANCH  43  47
DOCKED: ATOM     47  O   UNL d   1      -2.977   5.241 -11.530 -0.12 -0.03    -0.303 OA
DOCKED: ATOM     48  H   UNL d   1      -3.614   4.565 -11.220 +0.08 +0.03    +0.222 HD
DOCKED: ENDBRANCH  43  47
DOCKED: ENDBRANCH  42  43
DOCKED: ENDBRANCH   4  42
DOCKED: TORSDOF 24
DOCKED: TER
DOCKED: ENDMDL
________________________________________________________________________________


	BEGINNING GENETIC ALGORITHM DOCKING 8 of 100
Run: 8 Seed: 221832231 1530565166 [ Run 8 of 100 GA/GALS ]
Beginning LAMARCKIAN GENETIC ALGORITHM (LGA), with a maximum of 25000000 energy evaluations.

Final-Value: -16.906


	FINAL GENETIC ALGORITHM DOCKED STATE
	_______________________________________________


Detailed state:  trans -17.114 -10.026 -9.406 quatxyzw 0.169040 -0.573323 0.339417 0.726307 center 0.035 0.082 -0.065 ntor 24 -178.2719 11.3229 5.9340 -164.6899 75.6920 -165.0533 -19.6820 -94.6257 -13.5933 -9.3819 85.7842 -99.7797 26.0363 -86.6453 120.3552 67.1909 -180.0000 105.5713 4.2551 11.2431 -18.9332 -4.3012 169.3172 7.8917
State:	-17.114 -10.026  -9.406   0.246 -0.834  0.494 86.845   -178.27   11.32    5.93 -164.69   75.69 -165.05  -19.68  -94.63  -13.59   -9.38   85.78  -99.78   26.04  -86.65  120.36   67.19 -180.00  105.57    4.26   11.24  -18.93   -4.30  169.32    7.89

DOCKED: MODEL        8
DOCKED: USER    Run = 8
DOCKED: USER    DPF = D:/Protein_go_brrr/autodock/final/mut_Y35F/IHP/dock.dpf
DOCKED: USER  
DOCKED: USER    Estimated Free Energy of Binding    =   +4.56 kcal/mol  [=(1)+(2)+(3)-(4)]
DOCKED: USER    
DOCKED: USER    (1) Final Intermolecular Energy     =   -2.60 kcal/mol
DOCKED: USER        vdW + Hbond + desolv Energy     =   -2.62 kcal/mol
DOCKED: USER        Electrostatic Energy            =   +0.02 kcal/mol
DOCKED: USER    (2) Final Total Internal Energy     =  -14.31 kcal/mol
DOCKED: USER    (3) Torsional Free Energy           =   +7.16 kcal/mol
DOCKED: USER    (4) Unbound System's Energy  [=(2)] =  -14.31 kcal/mol
DOCKED: USER    
DOCKED: USER    
DOCKED: USER    NEWDPF move IHP_ideal_opt.pdbqt
DOCKED: USER    NEWDPF about 0.035000 0.082000 -0.065000
DOCKED: USER    NEWDPF tran0 -17.113803 -10.026125 -9.405836
DOCKED: USER    NEWDPF quaternion0 0.169040 -0.573323 0.339417 0.726307
DOCKED: USER    NEWDPF axisangle0 0.245923 -0.834082 0.493791 86.844560
DOCKED: USER    NEWDPF quat0 0.245923 -0.834082 0.493791 86.844560
DOCKED: USER    NEWDPF dihe0 -178.27 11.32 5.93 -164.69 75.69 -165.05 -19.68 -94.63 -13.59 -9.38 85.78 -99.78 26.04 -86.65 120.36 67.19 -180.00 105.57 4.26 11.24 -18.93 -4.30 169.32 7.89 
DOCKED: USER  keepresnum = 1 
DOCKED: USER  
DOCKED: REMARK  24 active torsions:
DOCKED: REMARK  status: ('A' for Active; 'I' for Inactive)
DOCKED: REMARK    1  A    between atoms: C_1  and  O_7 
DOCKED: REMARK    2  A    between atoms: C_2  and  O_12 
DOCKED: REMARK    3  A    between atoms: C_3  and  O_17 
DOCKED: REMARK    4  A    between atoms: C_4  and  O_22 
DOCKED: REMARK    5  A    between atoms: C_5  and  O_27 
DOCKED: REMARK    6  A    between atoms: C_6  and  O_32 
DOCKED: REMARK    7  A    between atoms: O_7  and  P_8 
DOCKED: REMARK    8  A    between atoms: P_8  and  O_10 
DOCKED: REMARK    9  A    between atoms: P_8  and  O_11 
DOCKED: REMARK   10  A    between atoms: O_12  and  P_13 
DOCKED: REMARK   11  A    between atoms: P_13  and  O_15 
DOCKED: REMARK   12  A    between atoms: P_13  and  O_16 
DOCKED: REMARK   13  A    between atoms: O_17  and  P_18 
DOCKED: REMARK   14  A    between atoms: P_18  and  O_20 
DOCKED: REMARK   15  A    between atoms: P_18  and  O_21 
DOCKED: REMARK   16  A    between atoms: O_22  and  P_23 
DOCKED: REMARK   17  A    between atoms: P_23  and  O_25 
DOCKED: REMARK   18  A    between atoms: P_23  and  O_26 
DOCKED: REMARK   19  A    between atoms: O_27  and  P_28 
DOCKED: REMARK   20  A    between atoms: P_28  and  O_30 
DOCKED: REMARK   21  A    between atoms: P_28  and  O_31 
DOCKED: REMARK   22  A    between atoms: O_32  and  P_33 
DOCKED: REMARK   23  A    between atoms: P_33  and  O_35 
DOCKED: REMARK   24  A    between atoms: P_33  and  O_36 
DOCKED: USER                              x       y       z     vdW  Elec       q    Type
DOCKED: USER                           _______ _______ _______ _____ _____    ______ ____
DOCKED: ROOT
DOCKED: ATOM      1  C   UNL d   1     -16.489 -11.633  -9.516 -0.19 +0.02    +0.194 C 
DOCKED: ATOM      2  C   UNL d   1     -17.220 -11.296  -8.215 -0.12 +0.02    +0.194 C 
DOCKED: ATOM      3  C   UNL d   1     -16.834  -9.910  -7.692 -0.23 +0.01    +0.194 C 
DOCKED: ATOM      4  C   UNL d   1     -16.982  -8.809  -8.739 -0.15 +0.01    +0.194 C 
DOCKED: ATOM      5  C   UNL d   1     -16.367  -9.151 -10.090 -0.15 +0.01    +0.194 C 
DOCKED: ATOM      6  C   UNL d   1     -16.702 -10.560 -10.584 -0.14 +0.02    +0.194 C 
DOCKED: ENDROOT
DOCKED: BRANCH   1   7
DOCKED: ATOM      7  O   UNL d   1     -17.029 -12.855 -10.026 -0.11 -0.02    -0.278 OA
DOCKED: BRANCH   7   8
DOCKED: ATOM      8  P   UNL d   1     -16.053 -14.111 -10.176 -0.12 +0.05    +0.473 P 
DOCKED: ATOM      9  O   UNL d   1     -15.750 -14.829  -8.907 -0.15 -0.03    -0.228 OA
DOCKED: BRANCH   8  10
DOCKED: ATOM     10  O   UNL d   1     -16.772 -15.032 -11.262 -0.02 -0.02    -0.303 OA
DOCKED: ATOM     11  H   UNL d   1     -17.358 -14.485 -11.818 +0.02 +0.01    +0.222 HD
DOCKED: ENDBRANCH   8  10
DOCKED: BRANCH   8  12
DOCKED: ATOM     12  O   UNL d   1     -14.797 -13.565 -10.981 -0.16 -0.05    -0.303 OA
DOCKED: ATOM     13  H   UNL d   1     -15.033 -12.874 -11.641 +0.04 +0.03    +0.222 HD
DOCKED: ENDBRANCH   8  12
DOCKED: ENDBRANCH   7   8
DOCKED: ENDBRANCH   1   7
DOCKED: BRANCH   2  14
DOCKED: ATOM     14  O   UNL d   1     -18.633 -11.316  -8.454 -0.05 -0.01    -0.278 OA
DOCKED: BRANCH  14  15
DOCKED: ATOM     15  P   UNL d   1     -19.549 -11.895  -7.275 -0.03 +0.00    +0.473 P 
DOCKED: ATOM     16  O   UNL d   1     -18.945 -12.961  -6.416 -0.06 -0.00    -0.228 OA
DOCKED: BRANCH  15  17
DOCKED: ATOM     17  O   UNL d   1     -19.977 -10.603  -6.447 -0.01 +0.00    -0.303 OA
DOCKED: ATOM     18  H   UNL d   1     -19.333 -10.411  -5.738 +0.03 -0.01    +0.222 HD
DOCKED: ENDBRANCH  15  17
DOCKED: BRANCH  15  19
DOCKED: ATOM     19  O   UNL d   1     -20.916 -12.283  -7.990 -0.00 +0.00    -0.303 OA
DOCKED: ATOM     20  H   UNL d   1     -21.241 -13.155  -7.697 +0.01 -0.00    +0.222 HD
DOCKED: ENDBRANCH  15  19
DOCKED: ENDBRANCH  14  15
DOCKED: ENDBRANCH   2  14
DOCKED: BRANCH   6  21
DOCKED: ATOM     21  O   UNL d   1     -15.802 -10.847 -11.652 -0.09 -0.03    -0.278 OA
DOCKED: BRANCH  21  22
DOCKED: ATOM     22  P   UNL d   1     -16.375 -11.200 -13.098 -0.05 +0.03    +0.473 P 
DOCKED: ATOM     23  O   UNL d   1     -15.548 -10.849 -14.289 -0.04 -0.01    -0.228 OA
DOCKED: BRANCH  22  24
DOCKED: ATOM     24  O   UNL d   1     -16.707 -12.749 -12.948 -0.03 -0.01    -0.303 OA
DOCKED: ATOM     25  H   UNL d   1     -16.616 -12.993 -11.992 +0.04 +0.01    +0.222 HD
DOCKED: ENDBRANCH  22  24
DOCKED: BRANCH  22  26
DOCKED: ATOM     26  O   UNL d   1     -17.836 -10.541 -13.039 -0.01 -0.01    -0.303 OA
DOCKED: ATOM     27  H   UNL d   1     -17.852  -9.858 -12.338 +0.02 +0.01    +0.222 HD
DOCKED: ENDBRANCH  22  26
DOCKED: ENDBRANCH  21  22
DOCKED: ENDBRANCH   6  21
DOCKED: BRANCH   3  28
DOCKED: ATOM     28  O   UNL d   1     -17.750  -9.573  -6.657 -0.11 -0.00    -0.278 OA
DOCKED: BRANCH  28  29
DOCKED: ATOM     29  P   UNL d   1     -17.288  -9.603  -5.133 -0.13 -0.02    +0.473 P 
DOCKED: ATOM     30  O   UNL d   1     -15.934  -9.056  -4.863 -0.28 +0.01    -0.228 OA
DOCKED: BRANCH  29  31
DOCKED: ATOM     31  O   UNL d   1     -18.525  -8.848  -4.453 -0.04 +0.02    -0.303 OA
DOCKED: ATOM     32  H   UNL d   1     -19.339  -9.052  -4.968 +0.04 -0.01    +0.222 HD
DOCKED: ENDBRANCH  29  31
DOCKED: BRANCH  29  33
DOCKED: ATOM     33  O   UNL d   1     -17.543 -11.124  -4.737 -0.11 +0.00    -0.303 OA
DOCKED: ATOM     34  H   UNL d   1     -18.351 -11.447  -5.205 +0.04 -0.00    +0.222 HD
DOCKED: ENDBRANCH  29  33
DOCKED: ENDBRANCH  28  29
DOCKED: ENDBRANCH   3  28
DOCKED: BRANCH   5  35
DOCKED: ATOM     35  O   UNL d   1     -16.939  -8.233 -11.019 -0.04 -0.01    -0.278 OA
DOCKED: BRANCH  35  36
DOCKED: ATOM     36  P   UNL d   1     -18.517  -8.197 -11.247 -0.00 +0.01    +0.473 P 
DOCKED: ATOM     37  O   UNL d   1     -18.961  -8.117 -12.673 -0.00 -0.00    -0.228 OA
DOCKED: BRANCH  36  38
DOCKED: ATOM     38  O   UNL d   1     -18.986  -9.516 -10.488 -0.01 -0.01    -0.303 OA
DOCKED: ATOM     39  H   UNL d   1     -18.882 -10.286 -11.088 +0.02 +0.00    +0.222 HD
DOCKED: ENDBRANCH  36  38
DOCKED: BRANCH  36  40
DOCKED: ATOM     40  O   UNL d   1     -18.973  -7.018 -10.282 -0.00 -0.00    -0.303 OA
DOCKED: ATOM     41  H   UNL d   1     -18.619  -7.134  -9.373 +0.02 +0.00    +0.222 HD
DOCKED: ENDBRANCH  36  40
DOCKED: ENDBRANCH  35  36
DOCKED: ENDBRANCH   5  35
DOCKED: BRANCH   4  42
DOCKED: ATOM     42  O   UNL d   1     -16.285  -7.664  -8.237 -0.13 -0.01    -0.278 OA
DOCKED: BRANCH  42  43
DOCKED: ATOM     43  P   UNL d   1     -17.127  -6.458  -7.621 -0.03 +0.01    +0.473 P 
DOCKED: ATOM     44  O   UNL d   1     -16.475  -5.633  -6.565 -0.08 -0.01    -0.228 OA
DOCKED: BRANCH  43  45
DOCKED: ATOM     45  O   UNL d   1     -17.558  -5.637  -8.914 -0.01 -0.01    -0.303 OA
DOCKED: ATOM     46  H   UNL d   1     -17.396  -6.147  -9.732 +0.02 +0.00    +0.222 HD
DOCKED: ENDBRANCH  43  45
DOCKED: BRANCH  43  47
DOCKED: ATOM     47  O   UNL d   1     -18.509  -7.153  -7.200 -0.02 -0.00    -0.303 OA
DOCKED: ATOM     48  H   UNL d   1     -18.386  -7.627  -6.351 +0.04 +0.00    +0.222 HD
DOCKED: ENDBRANCH  43  47
DOCKED: ENDBRANCH  42  43
DOCKED: ENDBRANCH   4  42
DOCKED: TORSDOF 24
DOCKED: TER
DOCKED: ENDMDL
________________________________________________________________________________


	BEGINNING GENETIC ALGORITHM DOCKING 9 of 100
Run: 9 Seed: 484364244 1463859368 [ Run 9 of 100 GA/GALS ]
Beginning LAMARCKIAN GENETIC ALGORITHM (LGA), with a maximum of 25000000 energy evaluations.

Final-Value: -18.358


	FINAL GENETIC ALGORITHM DOCKED STATE
	_______________________________________________


Detailed state:  trans -10.649 -11.927 -14.194 quatxyzw 0.159295 0.097362 -0.879325 0.438101 center 0.035 0.082 -0.065 ntor 24 -125.0809 24.3428 96.7110 75.8543 93.8256 72.5341 35.0052 -145.3498 11.0801 45.4105 87.9100 -124.6996 -135.6616 128.5256 -113.6407 -77.9653 155.1248 105.4503 26.3804 -10.1678 -9.5036 23.3089 -17.0831 -3.0024
State:	-10.649 -11.927 -14.194   0.177  0.108 -0.978 128.034   -125.08   24.34   96.71   75.85   93.83   72.53   35.01 -145.35   11.08   45.41   87.91 -124.70 -135.66  128.53 -113.64  -77.97  155.12  105.45   26.38  -10.17   -9.50   23.31  -17.08   -3.00

DOCKED: MODEL        9
DOCKED: USER    Run = 9
DOCKED: USER    DPF = D:/Protein_go_brrr/autodock/final/mut_Y35F/IHP/dock.dpf
DOCKED: USER  
DOCKED: USER    Estimated Free Energy of Binding    =   +4.48 kcal/mol  [=(1)+(2)+(3)-(4)]
DOCKED: USER    
DOCKED: USER    (1) Final Intermolecular Energy     =   -2.68 kcal/mol
DOCKED: USER        vdW + Hbond + desolv Energy     =   -2.72 kcal/mol
DOCKED: USER        Electrostatic Energy            =   +0.04 kcal/mol
DOCKED: USER    (2) Final Total Internal Energy     =  -15.67 kcal/mol
DOCKED: USER    (3) Torsional Free Energy           =   +7.16 kcal/mol
DOCKED: USER    (4) Unbound System's Energy  [=(2)] =  -15.67 kcal/mol
DOCKED: USER    
DOCKED: USER    
DOCKED: USER    NEWDPF move IHP_ideal_opt.pdbqt
DOCKED: USER    NEWDPF about 0.035000 0.082000 -0.065000
DOCKED: USER    NEWDPF tran0 -10.648709 -11.926769 -14.193693
DOCKED: USER    NEWDPF quaternion0 0.159295 0.097362 -0.879325 0.438101
DOCKED: USER    NEWDPF axisangle0 0.177205 0.108310 -0.978196 128.034435
DOCKED: USER    NEWDPF quat0 0.177205 0.108310 -0.978196 128.034435
DOCKED: USER    NEWDPF dihe0 -125.08 24.34 96.71 75.85 93.83 72.53 35.01 -145.35 11.08 45.41 87.91 -124.70 -135.66 128.53 -113.64 -77.97 155.12 105.45 26.38 -10.17 -9.50 23.31 -17.08 -3.00 
DOCKED: USER  keepresnum = 1 
DOCKED: USER  
DOCKED: REMARK  24 active torsions:
DOCKED: REMARK  status: ('A' for Active; 'I' for Inactive)
DOCKED: REMARK    1  A    between atoms: C_1  and  O_7 
DOCKED: REMARK    2  A    between atoms: C_2  and  O_12 
DOCKED: REMARK    3  A    between atoms: C_3  and  O_17 
DOCKED: REMARK    4  A    between atoms: C_4  and  O_22 
DOCKED: REMARK    5  A    between atoms: C_5  and  O_27 
DOCKED: REMARK    6  A    between atoms: C_6  and  O_32 
DOCKED: REMARK    7  A    between atoms: O_7  and  P_8 
DOCKED: REMARK    8  A    between atoms: P_8  and  O_10 
DOCKED: REMARK    9  A    between atoms: P_8  and  O_11 
DOCKED: REMARK   10  A    between atoms: O_12  and  P_13 
DOCKED: REMARK   11  A    between atoms: P_13  and  O_15 
DOCKED: REMARK   12  A    between atoms: P_13  and  O_16 
DOCKED: REMARK   13  A    between atoms: O_17  and  P_18 
DOCKED: REMARK   14  A    between atoms: P_18  and  O_20 
DOCKED: REMARK   15  A    between atoms: P_18  and  O_21 
DOCKED: REMARK   16  A    between atoms: O_22  and  P_23 
DOCKED: REMARK   17  A    between atoms: P_23  and  O_25 
DOCKED: REMARK   18  A    between atoms: P_23  and  O_26 
DOCKED: REMARK   19  A    between atoms: O_27  and  P_28 
DOCKED: REMARK   20  A    between atoms: P_28  and  O_30 
DOCKED: REMARK   21  A    between atoms: P_28  and  O_31 
DOCKED: REMARK   22  A    between atoms: O_32  and  P_33 
DOCKED: REMARK   23  A    between atoms: P_33  and  O_35 
DOCKED: REMARK   24  A    between atoms: P_33  and  O_36 
DOCKED: USER                              x       y       z     vdW  Elec       q    Type
DOCKED: USER                           _______ _______ _______ _____ _____    ______ ____
DOCKED: ROOT
DOCKED: ATOM      1  C   UNL d   1     -10.990 -10.417 -13.426 +0.08 +0.01    +0.194 C 
DOCKED: ATOM      2  C   UNL d   1      -9.555 -10.926 -13.276 -0.15 -0.00    +0.194 C 
DOCKED: ATOM      3  C   UNL d   1      -9.514 -12.425 -12.971 -0.17 +0.00    +0.194 C 
DOCKED: ATOM      4  C   UNL d   1     -10.322 -13.262 -13.959 -0.10 +0.01    +0.194 C 
DOCKED: ATOM      5  C   UNL d   1     -11.723 -12.725 -14.227 -0.08 +0.02    +0.194 C 
DOCKED: ATOM      6  C   UNL d   1     -11.771 -11.215 -14.471 -0.07 +0.01    +0.194 C 
DOCKED: ENDROOT
DOCKED: BRANCH   1   7
DOCKED: ATOM      7  O   UNL d   1     -10.938  -9.062 -13.876 -0.07 +0.00    -0.278 OA
DOCKED: BRANCH   7   8
DOCKED: ATOM      8  P   UNL d   1     -11.043  -7.896 -12.789 -0.12 -0.03    +0.473 P 
DOCKED: ATOM      9  O   UNL d   1     -12.430  -7.525 -12.394 -0.13 -0.00    -0.228 OA
DOCKED: BRANCH   8  10
DOCKED: ATOM     10  O   UNL d   1     -10.162  -8.424 -11.569 -0.03 +0.09    -0.303 OA
DOCKED: ATOM     11  H   UNL d   1      -9.216  -8.310 -11.775 -0.40 -0.10    +0.222 HD
DOCKED: ENDBRANCH   8  10
DOCKED: BRANCH   8  12
DOCKED: ATOM     12  O   UNL d   1     -10.146  -6.716 -13.361 -0.07 +0.02    -0.303 OA
DOCKED: ATOM     13  H   UNL d   1      -9.486  -7.020 -14.024 +0.03 -0.01    +0.222 HD
DOCKED: ENDBRANCH   8  12
DOCKED: ENDBRANCH   7   8
DOCKED: ENDBRANCH   1   7
DOCKED: BRANCH   2  14
DOCKED: ATOM     14  O   UNL d   1      -8.845 -10.689 -14.499 -0.03 +0.00    -0.278 OA
DOCKED: BRANCH  14  15
DOCKED: ATOM     15  P   UNL d   1      -7.532  -9.778 -14.399 -0.00 -0.02    +0.473 P 
DOCKED: ATOM     16  O   UNL d   1      -6.841  -9.452 -15.686 -0.01 +0.00    -0.228 OA
DOCKED: BRANCH  15  17
DOCKED: ATOM     17  O   UNL d   1      -8.019  -8.480 -13.614 -0.05 +0.03    -0.303 OA
DOCKED: ATOM     18  H   UNL d   1      -8.963  -8.548 -13.373 +0.05 -0.02    +0.222 HD
DOCKED: ENDBRANCH  15  17
DOCKED: BRANCH  15  19
DOCKED: ATOM     19  O   UNL d   1      -6.633 -10.497 -13.302 -0.05 +0.03    -0.303 OA
DOCKED: ATOM     20  H   UNL d   1      -6.930 -11.411 -13.134 +0.09 -0.02    +0.222 HD
DOCKED: ENDBRANCH  15  19
DOCKED: ENDBRANCH  14  15
DOCKED: ENDBRANCH   2  14
DOCKED: BRANCH   6  21
DOCKED: ATOM     21  O   UNL d   1     -13.138 -10.823 -14.360 -0.08 -0.02    -0.278 OA
DOCKED: BRANCH  21  22
DOCKED: ATOM     22  P   UNL d   1     -13.926 -10.325 -15.654 -0.02 +0.01    +0.473 P 
DOCKED: ATOM     23  O   UNL d   1     -13.780  -8.898 -16.063 -0.01 -0.00    -0.228 OA
DOCKED: BRANCH  22  24
DOCKED: ATOM     24  O   UNL d   1     -13.459 -11.384 -16.747 -0.01 -0.01    -0.303 OA
DOCKED: ATOM     25  H   UNL d   1     -13.234 -12.229 -16.281 +0.01 +0.01    +0.222 HD
DOCKED: ENDBRANCH  22  24
DOCKED: BRANCH  22  26
DOCKED: ATOM     26  O   UNL d   1     -15.419 -10.816 -15.335 -0.01 -0.01    -0.303 OA
DOCKED: ATOM     27  H   UNL d   1     -15.604 -11.633 -15.841 +0.01 +0.01    +0.222 HD
DOCKED: ENDBRANCH  22  26
DOCKED: ENDBRANCH  21  22
DOCKED: ENDBRANCH   6  21
DOCKED: BRANCH   3  28
DOCKED: ATOM     28  O   UNL d   1      -8.167 -12.856 -13.125 -0.11 +0.01    -0.278 OA
DOCKED: BRANCH  28  29
DOCKED: ATOM     29  P   UNL d   1      -7.492 -13.790 -12.026 -0.29 -0.06    +0.473 P 
DOCKED: ATOM     30  O   UNL d   1      -6.535 -13.115 -11.112 -0.28 +0.11    -0.228 OA
DOCKED: BRANCH  29  31
DOCKED: ATOM     31  O   UNL d   1      -8.799 -14.432 -11.363 -0.35 +0.00    -0.303 OA
DOCKED: ATOM     32  H   UNL d   1      -9.055 -15.230 -11.882 +0.09 +0.01    +0.222 HD
DOCKED: ENDBRANCH  29  31
DOCKED: BRANCH  29  33
DOCKED: ATOM     33  O   UNL d   1      -6.921 -14.986 -12.909 -0.24 -0.02    -0.303 OA
DOCKED: ATOM     34  H   UNL d   1      -7.633 -15.661 -13.033 +0.07 +0.03    +0.222 HD
DOCKED: ENDBRANCH  29  33
DOCKED: ENDBRANCH  28  29
DOCKED: ENDBRANCH   3  28
DOCKED: BRANCH   5  35
DOCKED: ATOM     35  O   UNL d   1     -12.157 -13.358 -15.428 -0.03 -0.02    -0.278 OA
DOCKED: BRANCH  35  36
DOCKED: ATOM     36  P   UNL d   1     -13.372 -14.392 -15.399 -0.01 +0.02    +0.473 P 
DOCKED: ATOM     37  O   UNL d   1     -13.457 -15.320 -16.569 -0.00 -0.01    -0.228 OA
DOCKED: BRANCH  36  38
DOCKED: ATOM     38  O   UNL d   1     -13.147 -15.120 -14.001 -0.03 -0.02    -0.303 OA
DOCKED: ATOM     39  H   UNL d   1     -12.260 -15.541 -13.997 +0.03 +0.02    +0.222 HD
DOCKED: ENDBRANCH  36  38
DOCKED: BRANCH  36  40
DOCKED: ATOM     40  O   UNL d   1     -14.620 -13.442 -15.140 -0.02 -0.01    -0.303 OA
DOCKED: ATOM     41  H   UNL d   1     -14.360 -12.494 -15.124 +0.02 +0.01    +0.222 HD
DOCKED: ENDBRANCH  36  40
DOCKED: ENDBRANCH  35  36
DOCKED: ENDBRANCH   5  35
DOCKED: BRANCH   4  42
DOCKED: ATOM     42  O   UNL d   1     -10.474 -14.560 -13.376 -0.09 -0.02    -0.278 OA
DOCKED: BRANCH  42  43
DOCKED: ATOM     43  P   UNL d   1      -9.773 -15.808 -14.081 -0.03 +0.05    +0.473 P 
DOCKED: ATOM     44  O   UNL d   1      -9.369 -16.949 -13.212 -0.11 -0.03    -0.228 OA
DOCKED: BRANCH  43  45
DOCKED: ATOM     45  O   UNL d   1     -10.815 -16.195 -15.220 -0.01 -0.03    -0.303 OA
DOCKED: ATOM     46  H   UNL d   1     -11.466 -15.480 -15.368 +0.02 +0.02    +0.222 HD
DOCKED: ENDBRANCH  43  45
DOCKED: BRANCH  43  47
DOCKED: ATOM     47  O   UNL d   1      -8.594 -15.135 -14.932 -0.03 -0.04    -0.303 OA
DOCKED: ATOM     48  H   UNL d   1      -8.043 -14.582 -14.339 +0.06 +0.02    +0.222 HD
DOCKED: ENDBRANCH  43  47
DOCKED: ENDBRANCH  42  43
DOCKED: ENDBRANCH   4  42
DOCKED: TORSDOF 24
DOCKED: TER
DOCKED: ENDMDL
________________________________________________________________________________


	BEGINNING GENETIC ALGORITHM DOCKING 10 of 100
Run: 10 Seed: 855884272 1637504215 [ Run 10 of 100 GA/GALS ]
Beginning LAMARCKIAN GENETIC ALGORITHM (LGA), with a maximum of 25000000 energy evaluations.

Final-Value: -15.710


	FINAL GENETIC ALGORITHM DOCKED STATE
	_______________________________________________


Detailed state:  trans 5.481 17.509 -11.685 quatxyzw 0.080207 -0.466588 0.543838 -0.692894 center 0.035 0.082 -0.065 ntor 24 -101.7197 17.3983 8.4924 144.0714 3.6321 172.9279 -31.3058 -114.8998 138.9547 34.8240 -180.0000 180.0000 -175.4690 -81.1707 -167.3306 77.7146 -143.6568 160.1837 64.1981 6.3927 -29.2328 -14.1153 1.1887 -180.0000
State:	  5.481  17.509 -11.685   0.111 -0.647  0.754 -92.281   -101.72   17.40    8.49  144.07    3.63  172.93  -31.31 -114.90  138.95   34.82 -180.00  180.00 -175.47  -81.17 -167.33   77.71 -143.66  160.18   64.20    6.39  -29.23  -14.12    1.19 -180.00

DOCKED: MODEL       10
DOCKED: USER    Run = 10
DOCKED: USER    DPF = D:/Protein_go_brrr/autodock/final/mut_Y35F/IHP/dock.dpf
DOCKED: USER  
DOCKED: USER    Estimated Free Energy of Binding    =   +4.05 kcal/mol  [=(1)+(2)+(3)-(4)]
DOCKED: USER    
DOCKED: USER    (1) Final Intermolecular Energy     =   -3.11 kcal/mol
DOCKED: USER        vdW + Hbond + desolv Energy     =   -3.00 kcal/mol
DOCKED: USER        Electrostatic Energy            =   -0.11 kcal/mol
DOCKED: USER    (2) Final Total Internal Energy     =  -12.60 kcal/mol
DOCKED: USER    (3) Torsional Free Energy           =   +7.16 kcal/mol
DOCKED: USER    (4) Unbound System's Energy  [=(2)] =  -12.60 kcal/mol
DOCKED: USER    
DOCKED: USER    
DOCKED: USER    NEWDPF move IHP_ideal_opt.pdbqt
DOCKED: USER    NEWDPF about 0.035000 0.082000 -0.065000
DOCKED: USER    NEWDPF tran0 5.480670 17.509214 -11.684551
DOCKED: USER    NEWDPF quaternion0 0.080207 -0.466588 0.543838 -0.692894
DOCKED: USER    NEWDPF axisangle0 0.111238 -0.647105 0.754242 -92.280759
DOCKED: USER    NEWDPF quat0 0.111238 -0.647105 0.754242 -92.280759
DOCKED: USER    NEWDPF dihe0 -101.72 17.40 8.49 144.07 3.63 172.93 -31.31 -114.90 138.95 34.82 -180.00 180.00 -175.47 -81.17 -167.33 77.71 -143.66 160.18 64.20 6.39 -29.23 -14.12 1.19 -180.00 
DOCKED: USER  keepresnum = 1 
DOCKED: USER  
DOCKED: REMARK  24 active torsions:
DOCKED: REMARK  status: ('A' for Active; 'I' for Inactive)
DOCKED: REMARK    1  A    between atoms: C_1  and  O_7 
DOCKED: REMARK    2  A    between atoms: C_2  and  O_12 
DOCKED: REMARK    3  A    between atoms: C_3  and  O_17 
DOCKED: REMARK    4  A    between atoms: C_4  and  O_22 
DOCKED: REMARK    5  A    between atoms: C_5  and  O_27 
DOCKED: REMARK    6  A    between atoms: C_6  and  O_32 
DOCKED: REMARK    7  A    between atoms: O_7  and  P_8 
DOCKED: REMARK    8  A    between atoms: P_8  and  O_10 
DOCKED: REMARK    9  A    between atoms: P_8  and  O_11 
DOCKED: REMARK   10  A    between atoms: O_12  and  P_13 
DOCKED: REMARK   11  A    between atoms: P_13  and  O_15 
DOCKED: REMARK   12  A    between atoms: P_13  and  O_16 
DOCKED: REMARK   13  A    between atoms: O_17  and  P_18 
DOCKED: REMARK   14  A    between atoms: P_18  and  O_20 
DOCKED: REMARK   15  A    between atoms: P_18  and  O_21 
DOCKED: REMARK   16  A    between atoms: O_22  and  P_23 
DOCKED: REMARK   17  A    between atoms: P_23  and  O_25 
DOCKED: REMARK   18  A    between atoms: P_23  and  O_26 
DOCKED: REMARK   19  A    between atoms: O_27  and  P_28 
DOCKED: REMARK   20  A    between atoms: P_28  and  O_30 
DOCKED: REMARK   21  A    between atoms: P_28  and  O_31 
DOCKED: REMARK   22  A    between atoms: O_32  and  P_33 
DOCKED: REMARK   23  A    between atoms: P_33  and  O_35 
DOCKED: REMARK   24  A    between atoms: P_33  and  O_36 
DOCKED: USER                              x       y       z     vdW  Elec       q    Type
DOCKED: USER                           _______ _______ _______ _____ _____    ______ ____
DOCKED: ROOT
DOCKED: ATOM      1  C   UNL d   1       5.740  17.519  -9.977 -0.09 +0.03    +0.194 C 
DOCKED: ATOM      2  C   UNL d   1       6.646  16.582 -10.777 -0.11 +0.02    +0.194 C 
DOCKED: ATOM      3  C   UNL d   1       5.866  15.820 -11.851 -0.14 +0.02    +0.194 C 
DOCKED: ATOM      4  C   UNL d   1       5.037  16.731 -12.752 -0.06 +0.00    +0.194 C 
DOCKED: ATOM      5  C   UNL d   1       4.204  17.759 -11.998 -0.03 +0.01    +0.194 C 
DOCKED: ATOM      6  C   UNL d   1       4.967  18.478 -10.884 -0.03 +0.01    +0.194 C 
DOCKED: ENDROOT
DOCKED: BRANCH   1   7
DOCKED: ATOM      7  O   UNL d   1       6.565  18.314  -9.121 -0.05 -0.05    -0.278 OA
DOCKED: BRANCH   7   8
DOCKED: ATOM      8  P   UNL d   1       7.507  17.568  -8.069 -0.13 +0.14    +0.473 P 
DOCKED: ATOM      9  O   UNL d   1       7.311  17.971  -6.650 -0.68 -0.16    -0.228 OA
DOCKED: BRANCH   8  10
DOCKED: ATOM     10  O   UNL d   1       7.225  16.019  -8.326 -0.23 -0.09    -0.303 OA
DOCKED: ATOM     11  H   UNL d   1       7.942  15.642  -8.870 +0.09 +0.04    +0.222 HD
DOCKED: ENDBRANCH   8  10
DOCKED: BRANCH   8  12
DOCKED: ATOM     12  O   UNL d   1       8.980  17.737  -8.641 -0.04 -0.02    -0.303 OA
DOCKED: ATOM     13  H   UNL d   1       9.005  17.829  -9.620 +0.04 +0.01    +0.222 HD
DOCKED: ENDBRANCH   8  12
DOCKED: ENDBRANCH   7   8
DOCKED: ENDBRANCH   1   7
DOCKED: BRANCH   2  14
DOCKED: ATOM     14  O   UNL d   1       7.668  17.356 -11.419 -0.03 -0.01    -0.278 OA
DOCKED: BRANCH  14  15
DOCKED: ATOM     15  P   UNL d   1       9.148  16.745 -11.397 -0.01 -0.00    +0.473 P 
DOCKED: ATOM     16  O   UNL d   1       9.471  15.807 -10.277 -0.10 +0.00    -0.228 OA
DOCKED: BRANCH  15  17
DOCKED: ATOM     17  O   UNL d   1       9.312  16.074 -12.832 -0.02 +0.01    -0.303 OA
DOCKED: ATOM     18  H   UNL d   1       8.980  15.155 -12.831 +0.05 -0.00    +0.222 HD
DOCKED: ENDBRANCH  15  17
DOCKED: BRANCH  15  19
DOCKED: ATOM     19  O   UNL d   1      10.101  18.012 -11.527 -0.00 +0.01    -0.303 OA
DOCKED: ATOM     20  H   UNL d   1      10.265  18.430 -10.661 +0.01 -0.01    +0.222 HD
DOCKED: ENDBRANCH  15  19
DOCKED: ENDBRANCH  14  15
DOCKED: ENDBRANCH   2  14
DOCKED: BRANCH   6  21
DOCKED: ATOM     21  O   UNL d   1       3.994  19.129 -10.071 -0.01 -0.03    -0.278 OA
DOCKED: BRANCH  21  22
DOCKED: ATOM     22  P   UNL d   1       4.192  20.661  -9.672 +0.01 +0.03    +0.473 P 
DOCKED: ATOM     23  O   UNL d   1       3.899  21.067  -8.267 -0.01 -0.03    -0.228 OA
DOCKED: BRANCH  22  24
DOCKED: ATOM     24  O   UNL d   1       5.688  20.930 -10.146 +0.00 -0.01    -0.303 OA
DOCKED: ATOM     25  H   UNL d   1       6.287  20.338  -9.624 +0.02 +0.02    +0.222 HD
DOCKED: ENDBRANCH  22  24
DOCKED: BRANCH  22  26
DOCKED: ATOM     26  O   UNL d   1       3.345  21.406 -10.810 +0.00 -0.00    -0.303 OA
DOCKED: ATOM     27  H   UNL d   1       2.971  20.739 -11.422 +0.00 +0.00    +0.222 HD
DOCKED: ENDBRANCH  22  26
DOCKED: ENDBRANCH  21  22
DOCKED: ENDBRANCH   6  21
DOCKED: BRANCH   3  28
DOCKED: ATOM     28  O   UNL d   1       6.814  15.200 -12.710 -0.10 -0.01    -0.278 OA
DOCKED: BRANCH  28  29
DOCKED: ATOM     29  P   UNL d   1       7.228  13.678 -12.487 -0.21 +0.03    +0.473 P 
DOCKED: ATOM     30  O   UNL d   1       6.101  12.716 -12.387 -0.47 -0.04    -0.228 OA
DOCKED: BRANCH  29  31
DOCKED: ATOM     31  O   UNL d   1       8.243  13.483 -13.709 -0.12 -0.00    -0.303 OA
DOCKED: ATOM     32  H   UNL d   1       8.556  14.370 -14.002 +0.04 -0.00    +0.222 HD
DOCKED: ENDBRANCH  29  31
DOCKED: BRANCH  29  33
DOCKED: ATOM     33  O   UNL d   1       8.203  13.777 -11.232 -0.21 -0.01    -0.303 OA
DOCKED: ATOM     34  H   UNL d   1       8.931  14.412 -11.441 +0.08 -0.00    +0.222 HD
DOCKED: ENDBRANCH  29  33
DOCKED: ENDBRANCH  28  29
DOCKED: ENDBRANCH   3  28
DOCKED: BRANCH   5  35
DOCKED: ATOM     35  O   UNL d   1       3.841  18.745 -12.962 -0.00 +0.00    -0.278 OA
DOCKED: BRANCH  35  36
DOCKED: ATOM     36  P   UNL d   1       2.328  19.238 -13.079 +0.00 -0.01    +0.473 P 
DOCKED: ATOM     37  O   UNL d   1       1.529  18.612 -14.178 -0.00 +0.01    -0.228 OA
DOCKED: BRANCH  36  38
DOCKED: ATOM     38  O   UNL d   1       1.774  18.939 -11.616 -0.00 +0.00    -0.303 OA
DOCKED: ATOM     39  H   UNL d   1       2.200  19.554 -10.980 +0.01 +0.00    +0.222 HD
DOCKED: ENDBRANCH  36  38
DOCKED: BRANCH  36  40
DOCKED: ATOM     40  O   UNL d   1       2.487  20.820 -13.113 +0.00 +0.01    -0.303 OA
DOCKED: ATOM     41  H   UNL d   1       3.416  21.096 -12.949 +0.00 -0.00    +0.222 HD
DOCKED: ENDBRANCH  36  40
DOCKED: ENDBRANCH  35  36
DOCKED: ENDBRANCH   5  35
DOCKED: BRANCH   4  42
DOCKED: ATOM     42  O   UNL d   1       4.123  15.889 -13.464 -0.05 -0.00    -0.278 OA
DOCKED: BRANCH  42  43
DOCKED: ATOM     43  P   UNL d   1       2.943  15.178 -12.660 -0.12 +0.01    +0.473 P 
DOCKED: ATOM     44  O   UNL d   1       2.396  13.911 -13.221 -0.15 +0.00    -0.228 OA
DOCKED: BRANCH  43  45
DOCKED: ATOM     45  O   UNL d   1       3.555  15.032 -11.198 -0.19 -0.03    -0.303 OA
DOCKED: ATOM     46  H   UNL d   1       3.145  15.663 -10.574 +0.06 +0.02    +0.222 HD
DOCKED: ENDBRANCH  43  45
DOCKED: BRANCH  43  47
DOCKED: ATOM     47  O   UNL d   1       1.879  16.358 -12.451 -0.04 +0.00    -0.303 OA
DOCKED: ATOM     48  H   UNL d   1       2.231  17.183 -12.845 +0.03 -0.00    +0.222 HD
DOCKED: ENDBRANCH  43  47
DOCKED: ENDBRANCH  42  43
DOCKED: ENDBRANCH   4  42
DOCKED: TORSDOF 24
DOCKED: TER
DOCKED: ENDMDL
________________________________________________________________________________


	BEGINNING GENETIC ALGORITHM DOCKING 11 of 100
Run: 11 Seed: 1828518831 472590597 [ Run 11 of 100 GA/GALS ]
Beginning LAMARCKIAN GENETIC ALGORITHM (LGA), with a maximum of 25000000 energy evaluations.

Final-Value: -16.968


	FINAL GENETIC ALGORITHM DOCKED STATE
	_______________________________________________


Detailed state:  trans 12.003 14.456 -9.871 quatxyzw 0.426151 0.286166 -0.420803 -0.747950 center 0.035 0.082 -0.065 ntor 24 -137.6685 -6.3647 57.2129 93.5952 -89.5376 60.6694 54.7521 10.6156 -153.2303 35.8555 31.4090 95.6855 96.1676 -36.4838 -136.9655 -173.6034 163.3778 -96.4520 -18.5285 -8.9297 147.5406 154.2363 176.6038 -121.0542
State:	 12.003  14.456  -9.871   0.642  0.431 -0.634 -83.174   -137.67   -6.36   57.21   93.60  -89.54   60.67   54.75   10.62 -153.23   35.86   31.41   95.69   96.17  -36.48 -136.97 -173.60  163.38  -96.45  -18.53   -8.93  147.54  154.24  176.60 -121.05

DOCKED: MODEL       11
DOCKED: USER    Run = 11
DOCKED: USER    DPF = D:/Protein_go_brrr/autodock/final/mut_Y35F/IHP/dock.dpf
DOCKED: USER  
DOCKED: USER    Estimated Free Energy of Binding    =   +1.81 kcal/mol  [=(1)+(2)+(3)-(4)]
DOCKED: USER    
DOCKED: USER    (1) Final Intermolecular Energy     =   -5.35 kcal/mol
DOCKED: USER        vdW + Hbond + desolv Energy     =   -4.96 kcal/mol
DOCKED: USER        Electrostatic Energy            =   -0.38 kcal/mol
DOCKED: USER    (2) Final Total Internal Energy     =  -11.62 kcal/mol
DOCKED: USER    (3) Torsional Free Energy           =   +7.16 kcal/mol
DOCKED: USER    (4) Unbound System's Energy  [=(2)] =  -11.62 kcal/mol
DOCKED: USER    
DOCKED: USER    
DOCKED: USER    NEWDPF move IHP_ideal_opt.pdbqt
DOCKED: USER    NEWDPF about 0.035000 0.082000 -0.065000
DOCKED: USER    NEWDPF tran0 12.003101 14.455752 -9.871295
DOCKED: USER    NEWDPF quaternion0 0.426151 0.286166 -0.420803 -0.747950
DOCKED: USER    NEWDPF axisangle0 0.642030 0.431132 -0.633974 -83.173826
DOCKED: USER    NEWDPF quat0 0.642030 0.431132 -0.633974 -83.173826
DOCKED: USER    NEWDPF dihe0 -137.67 -6.36 57.21 93.60 -89.54 60.67 54.75 10.62 -153.23 35.86 31.41 95.69 96.17 -36.48 -136.97 -173.60 163.38 -96.45 -18.53 -8.93 147.54 154.24 176.60 -121.05 
DOCKED: USER  keepresnum = 1 
DOCKED: USER  
DOCKED: REMARK  24 active torsions:
DOCKED: REMARK  status: ('A' for Active; 'I' for Inactive)
DOCKED: REMARK    1  A    between atoms: C_1  and  O_7 
DOCKED: REMARK    2  A    between atoms: C_2  and  O_12 
DOCKED: REMARK    3  A    between atoms: C_3  and  O_17 
DOCKED: REMARK    4  A    between atoms: C_4  and  O_22 
DOCKED: REMARK    5  A    between atoms: C_5  and  O_27 
DOCKED: REMARK    6  A    between atoms: C_6  and  O_32 
DOCKED: REMARK    7  A    between atoms: O_7  and  P_8 
DOCKED: REMARK    8  A    between atoms: P_8  and  O_10 
DOCKED: REMARK    9  A    between atoms: P_8  and  O_11 
DOCKED: REMARK   10  A    between atoms: O_12  and  P_13 
DOCKED: REMARK   11  A    between atoms: P_13  and  O_15 
DOCKED: REMARK   12  A    between atoms: P_13  and  O_16 
DOCKED: REMARK   13  A    between atoms: O_17  and  P_18 
DOCKED: REMARK   14  A    between atoms: P_18  and  O_20 
DOCKED: REMARK   15  A    between atoms: P_18  and  O_21 
DOCKED: REMARK   16  A    between atoms: O_22  and  P_23 
DOCKED: REMARK   17  A    between atoms: P_23  and  O_25 
DOCKED: REMARK   18  A    between atoms: P_23  and  O_26 
DOCKED: REMARK   19  A    between atoms: O_27  and  P_28 
DOCKED: REMARK   20  A    between atoms: P_28  and  O_30 
DOCKED: REMARK   21  A    between atoms: P_28  and  O_31 
DOCKED: REMARK   22  A    between atoms: O_32  and  P_33 
DOCKED: REMARK   23  A    between atoms: P_33  and  O_35 
DOCKED: REMARK   24  A    between atoms: P_33  and  O_36 
DOCKED: USER                              x       y       z     vdW  Elec       q    Type
DOCKED: USER                           _______ _______ _______ _____ _____    ______ ____
DOCKED: ROOT
DOCKED: ATOM      1  C   UNL d   1      11.886  13.027 -10.835 -0.20 -0.04    +0.194 C 
DOCKED: ATOM      2  C   UNL d   1      10.557  13.605 -10.347 -0.25 -0.03    +0.194 C 
DOCKED: ATOM      3  C   UNL d   1      10.633  14.040  -8.882 -0.33 -0.02    +0.194 C 
DOCKED: ATOM      4  C   UNL d   1      11.808  14.970  -8.590 -0.15 -0.03    +0.194 C 
DOCKED: ATOM      5  C   UNL d   1      13.136  14.488  -9.160 -0.08 -0.04    +0.194 C 
DOCKED: ATOM      6  C   UNL d   1      13.048  13.995 -10.606 -0.07 -0.03    +0.194 C 
DOCKED: ENDROOT
DOCKED: BRANCH   1   7
DOCKED: ATOM      7  O   UNL d   1      11.787  12.808 -12.244 -0.09 +0.04    -0.278 OA
DOCKED: BRANCH   7   8
DOCKED: ATOM      8  P   UNL d   1      12.458  11.494 -12.858 -0.12 -0.09    +0.473 P 
DOCKED: ATOM      9  O   UNL d   1      11.761  10.923 -14.042 -0.11 +0.03    -0.228 OA
DOCKED: BRANCH   8  10
DOCKED: ATOM     10  O   UNL d   1      13.960  11.936 -13.166 -0.06 +0.06    -0.303 OA
DOCKED: ATOM     11  H   UNL d   1      14.416  12.150 -12.331 +0.06 -0.05    +0.222 HD
DOCKED: ENDBRANCH   8  10
DOCKED: BRANCH   8  12
DOCKED: ATOM     12  O   UNL d   1      12.647  10.512 -11.623 -0.07 +0.14    -0.303 OA
DOCKED: ATOM     13  H   UNL d   1      13.109  10.933 -10.863 -0.35 -0.16    +0.222 HD
DOCKED: ENDBRANCH   8  12
DOCKED: ENDBRANCH   7   8
DOCKED: ENDBRANCH   1   7
DOCKED: BRANCH   2  14
DOCKED: ATOM     14  O   UNL d   1      10.223  14.747 -11.146 -0.09 +0.02    -0.278 OA
DOCKED: BRANCH  14  15
DOCKED: ATOM     15  P   UNL d   1       8.814  14.701 -11.906 -0.12 -0.00    +0.473 P 
DOCKED: ATOM     16  O   UNL d   1       7.805  13.722 -11.393 -0.22 -0.01    -0.228 OA
DOCKED: BRANCH  15  17
DOCKED: ATOM     17  O   UNL d   1       8.296  16.206 -11.854 -0.04 -0.00    -0.303 OA
DOCKED: ATOM     18  H   UNL d   1       8.507  16.621 -10.995 +0.05 +0.01    +0.222 HD
DOCKED: ENDBRANCH  15  17
DOCKED: BRANCH  15  19
DOCKED: ATOM     19  O   UNL d   1       9.198  14.549 -13.442 -0.05 +0.01    -0.303 OA
DOCKED: ATOM     20  H   UNL d   1      10.005  14.015 -13.561 +0.04 -0.01    +0.222 HD
DOCKED: ENDBRANCH  15  19
DOCKED: ENDBRANCH  14  15
DOCKED: ENDBRANCH   2  14
DOCKED: BRANCH   6  21
DOCKED: ATOM     21  O   UNL d   1      14.250  13.276 -10.870 -0.05 +0.06    -0.278 OA
DOCKED: BRANCH  21  22
DOCKED: ATOM     22  P   UNL d   1      14.798  12.228  -9.799 -0.10 -0.15    +0.473 P 
DOCKED: ATOM     23  O   UNL d   1      16.002  12.599  -9.001 -0.09 +0.06    -0.228 OA
DOCKED: BRANCH  22  24
DOCKED: ATOM     24  O   UNL d   1      13.492  11.929  -8.939 +0.05 +0.15    -0.303 OA
DOCKED: ATOM     25  H   UNL d   1      13.778  11.621  -8.042 -0.18 -0.09    +0.222 HD
DOCKED: ENDBRANCH  22  24
DOCKED: BRANCH  22  26
DOCKED: ATOM     26  O   UNL d   1      14.924  10.896 -10.683 -0.26 +0.13    -0.303 OA
DOCKED: ATOM     27  H   UNL d   1      14.275  10.236 -10.364 -0.47 -0.19    +0.222 HD
DOCKED: ENDBRANCH  22  26
DOCKED: ENDBRANCH  21  22
DOCKED: ENDBRANCH   6  21
DOCKED: BRANCH   3  28
DOCKED: ATOM     28  O   UNL d   1       9.468  14.806  -8.602 -0.30 -0.00    -0.278 OA
DOCKED: BRANCH  28  29
DOCKED: ATOM     29  P   UNL d   1       9.507  16.395  -8.700 -0.10 +0.01    +0.473 P 
DOCKED: ATOM     30  O   UNL d   1       8.186  17.061  -8.838 -0.12 -0.03    -0.228 OA
DOCKED: BRANCH  29  31
DOCKED: ATOM     31  O   UNL d   1      10.358  16.735  -7.389 -0.11 +0.01    -0.303 OA
DOCKED: ATOM     32  H   UNL d   1      11.263  17.011  -7.665 +0.06 -0.03    +0.222 HD
DOCKED: ENDBRANCH  29  31
DOCKED: BRANCH  29  33
DOCKED: ATOM     33  O   UNL d   1      10.558  16.631  -9.873 -0.02 +0.02    -0.303 OA
DOCKED: ATOM     34  H   UNL d   1      10.156  16.338 -10.728 +0.05 -0.01    +0.222 HD
DOCKED: ENDBRANCH  29  33
DOCKED: ENDBRANCH  28  29
DOCKED: ENDBRANCH   3  28
DOCKED: BRANCH   5  35
DOCKED: ATOM     35  O   UNL d   1      13.995  15.627  -9.156 -0.01 +0.05    -0.278 OA
DOCKED: BRANCH  35  36
DOCKED: ATOM     36  P   UNL d   1      13.527  16.989  -9.841 +0.01 -0.07    +0.473 P 
DOCKED: ATOM     37  O   UNL d   1      14.626  17.861 -10.360 +0.00 +0.03    -0.228 OA
DOCKED: BRANCH  36  38
DOCKED: ATOM     38  O   UNL d   1      12.524  16.464 -10.961 -0.00 +0.03    -0.303 OA
DOCKED: ATOM     39  H   UNL d   1      11.726  17.035 -10.972 +0.02 -0.02    +0.222 HD
DOCKED: ENDBRANCH  36  38
DOCKED: BRANCH  36  40
DOCKED: ATOM     40  O   UNL d   1      12.570  17.615  -8.735 -0.01 +0.05    -0.303 OA
DOCKED: ATOM     41  H   UNL d   1      12.433  16.998  -7.982 +0.05 -0.05    +0.222 HD
DOCKED: ENDBRANCH  36  40
DOCKED: ENDBRANCH  35  36
DOCKED: ENDBRANCH   5  35
DOCKED: BRANCH   4  42
DOCKED: ATOM     42  O   UNL d   1      11.954  15.020  -7.167 -0.19 +0.05    -0.278 OA
DOCKED: BRANCH  42  43
DOCKED: ATOM     43  P   UNL d   1      13.384  14.724  -6.527 -0.18 -0.17    +0.473 P 
DOCKED: ATOM     44  O   UNL d   1      14.085  13.482  -6.958 -0.20 +0.06    -0.228 OA
DOCKED: BRANCH  43  45
DOCKED: ATOM     45  O   UNL d   1      14.188  16.063  -6.832 -0.08 +0.14    -0.303 OA
DOCKED: ATOM     46  H   UNL d   1      14.007  16.391  -7.736 +0.04 -0.07    +0.222 HD
DOCKED: ENDBRANCH  43  45
DOCKED: BRANCH  43  47
DOCKED: ATOM     47  O   UNL d   1      13.116  14.856  -4.952 -0.09 +0.22    -0.303 OA
DOCKED: ATOM     48  H   UNL d   1      13.194  15.797  -4.690 -0.43 -0.36    +0.222 HD
DOCKED: ENDBRANCH  43  47
DOCKED: ENDBRANCH  42  43
DOCKED: ENDBRANCH   4  42
DOCKED: TORSDOF 24
DOCKED: TER
DOCKED: ENDMDL
________________________________________________________________________________


	BEGINNING GENETIC ALGORITHM DOCKING 12 of 100
Run: 12 Seed: 1301737278 166032942 [ Run 12 of 100 GA/GALS ]
Beginning LAMARCKIAN GENETIC ALGORITHM (LGA), with a maximum of 25000000 energy evaluations.

Final-Value: -17.536


	FINAL GENETIC ALGORITHM DOCKED STATE
	_______________________________________________


Detailed state:  trans 21.589 14.840 -4.239 quatxyzw 0.677780 -0.252628 -0.676781 -0.136970 center 0.035 0.082 -0.065 ntor 24 85.6848 78.8789 167.1444 8.7350 -8.2627 180.0000 47.2741 -77.5267 108.0560 -9.0736 1.6230 -161.1940 180.0000 82.8554 -39.5374 -125.0545 124.4152 -11.4602 20.2423 -28.6774 -179.7423 3.3269 -7.6109 179.8030
State:	 21.589  14.840  -4.239   0.684 -0.255 -0.683 -164.255     85.68   78.88  167.14    8.74   -8.26  180.00   47.27  -77.53  108.06   -9.07    1.62 -161.19  180.00   82.86  -39.54 -125.05  124.42  -11.46   20.24  -28.68 -179.74    3.33   -7.61  179.80

DOCKED: MODEL       12
DOCKED: USER    Run = 12
DOCKED: USER    DPF = D:/Protein_go_brrr/autodock/final/mut_Y35F/IHP/dock.dpf
DOCKED: USER  
DOCKED: USER    Estimated Free Energy of Binding    =   +4.71 kcal/mol  [=(1)+(2)+(3)-(4)]
DOCKED: USER    
DOCKED: USER    (1) Final Intermolecular Energy     =   -2.45 kcal/mol
DOCKED: USER        vdW + Hbond + desolv Energy     =   -2.38 kcal/mol
DOCKED: USER        Electrostatic Energy            =   -0.07 kcal/mol
DOCKED: USER    (2) Final Total Internal Energy     =  -15.09 kcal/mol
DOCKED: USER    (3) Torsional Free Energy           =   +7.16 kcal/mol
DOCKED: USER    (4) Unbound System's Energy  [=(2)] =  -15.09 kcal/mol
DOCKED: USER    
DOCKED: USER    
DOCKED: USER    NEWDPF move IHP_ideal_opt.pdbqt
DOCKED: USER    NEWDPF about 0.035000 0.082000 -0.065000
DOCKED: USER    NEWDPF tran0 21.589284 14.840051 -4.239390
DOCKED: USER    NEWDPF quaternion0 0.677780 -0.252628 -0.676781 -0.136970
DOCKED: USER    NEWDPF axisangle0 0.684229 -0.255032 -0.683220 -164.254927
DOCKED: USER    NEWDPF quat0 0.684229 -0.255032 -0.683220 -164.254927
DOCKED: USER    NEWDPF dihe0 85.68 78.88 167.14 8.74 -8.26 180.00 47.27 -77.53 108.06 -9.07 1.62 -161.19 180.00 82.86 -39.54 -125.05 124.42 -11.46 20.24 -28.68 -179.74 3.33 -7.61 179.80 
DOCKED: USER  keepresnum = 1 
DOCKED: USER  
DOCKED: REMARK  24 active torsions:
DOCKED: REMARK  status: ('A' for Active; 'I' for Inactive)
DOCKED: REMARK    1  A    between atoms: C_1  and  O_7 
DOCKED: REMARK    2  A    between atoms: C_2  and  O_12 
DOCKED: REMARK    3  A    between atoms: C_3  and  O_17 
DOCKED: REMARK    4  A    between atoms: C_4  and  O_22 
DOCKED: REMARK    5  A    between atoms: C_5  and  O_27 
DOCKED: REMARK    6  A    between atoms: C_6  and  O_32 
DOCKED: REMARK    7  A    between atoms: O_7  and  P_8 
DOCKED: REMARK    8  A    between atoms: P_8  and  O_10 
DOCKED: REMARK    9  A    between atoms: P_8  and  O_11 
DOCKED: REMARK   10  A    between atoms: O_12  and  P_13 
DOCKED: REMARK   11  A    between atoms: P_13  and  O_15 
DOCKED: REMARK   12  A    between atoms: P_13  and  O_16 
DOCKED: REMARK   13  A    between atoms: O_17  and  P_18 
DOCKED: REMARK   14  A    between atoms: P_18  and  O_20 
DOCKED: REMARK   15  A    between atoms: P_18  and  O_21 
DOCKED: REMARK   16  A    between atoms: O_22  and  P_23 
DOCKED: REMARK   17  A    between atoms: P_23  and  O_25 
DOCKED: REMARK   18  A    between atoms: P_23  and  O_26 
DOCKED: REMARK   19  A    between atoms: O_27  and  P_28 
DOCKED: REMARK   20  A    between atoms: P_28  and  O_30 
DOCKED: REMARK   21  A    between atoms: P_28  and  O_31 
DOCKED: REMARK   22  A    between atoms: O_32  and  P_33 
DOCKED: REMARK   23  A    between atoms: P_33  and  O_35 
DOCKED: REMARK   24  A    between atoms: P_33  and  O_36 
DOCKED: USER                              x       y       z     vdW  Elec       q    Type
DOCKED: USER                           _______ _______ _______ _____ _____    ______ ____
DOCKED: ROOT
DOCKED: ATOM      1  C   UNL d   1      20.894  15.044  -5.807 -0.01 -0.03    +0.194 C 
DOCKED: ATOM      2  C   UNL d   1      21.438  16.316  -5.156 -0.00 -0.03    +0.194 C 
DOCKED: ATOM      3  C   UNL d   1      21.062  16.400  -3.675 -0.01 -0.03    +0.194 C 
DOCKED: ATOM      4  C   UNL d   1      21.431  15.145  -2.888 -0.02 -0.03    +0.194 C 
DOCKED: ATOM      5  C   UNL d   1      21.007  13.845  -3.559 -0.06 -0.03    +0.194 C 
DOCKED: ATOM      6  C   UNL d   1      21.329  13.786  -5.054 -0.03 -0.03    +0.194 C 
DOCKED: ENDROOT
DOCKED: BRANCH   1   7
DOCKED: ATOM      7  O   UNL d   1      21.429  14.955  -7.130 -0.00 +0.04    -0.278 OA
DOCKED: BRANCH   7   8
DOCKED: ATOM      8  P   UNL d   1      20.491  15.359  -8.358 +0.00 -0.07    +0.473 P 
DOCKED: ATOM      9  O   UNL d   1      20.404  14.347  -9.445 -0.00 +0.04    -0.228 OA
DOCKED: BRANCH   8  10
DOCKED: ATOM     10  O   UNL d   1      19.082  15.675  -7.680 -0.00 +0.05    -0.303 OA
DOCKED: ATOM     11  H   UNL d   1      18.667  14.843  -7.384 +0.03 -0.05    +0.222 HD
DOCKED: ENDBRANCH   8  10
DOCKED: BRANCH   8  12
DOCKED: ATOM     12  O   UNL d   1      20.982  16.806  -8.794 +0.00 +0.03    -0.303 OA
DOCKED: ATOM     13  H   UNL d   1      21.949  16.937  -8.675 +0.00 -0.02    +0.222 HD
DOCKED: ENDBRANCH   8  12
DOCKED: ENDBRANCH   7   8
DOCKED: ENDBRANCH   1   7
DOCKED: BRANCH   2  14
DOCKED: ATOM     14  O   UNL d   1      22.867  16.321  -5.265 -0.00 +0.03    -0.278 OA
DOCKED: BRANCH  14  15
DOCKED: ATOM     15  P   UNL d   1      23.496  17.272  -6.389 +0.00 -0.04    +0.473 P 
DOCKED: ATOM     16  O   UNL d   1      24.720  18.044  -6.009 +0.00 +0.01    -0.228 OA
DOCKED: BRANCH  15  17
DOCKED: ATOM     17  O   UNL d   1      23.741  16.299  -7.627 +0.00 +0.03    -0.303 OA
DOCKED: ATOM     18  H   UNL d   1      22.896  16.037  -8.041 +0.00 -0.02    +0.222 HD
DOCKED: ENDBRANCH  15  17
DOCKED: BRANCH  15  19
DOCKED: ATOM     19  O   UNL d   1      22.269  18.142  -6.905 +0.00 +0.03    -0.303 OA
DOCKED: ATOM     20  H   UNL d   1      21.506  17.583  -7.145 +0.00 -0.03    +0.222 HD
DOCKED: ENDBRANCH  15  19
DOCKED: ENDBRANCH  14  15
DOCKED: ENDBRANCH   2  14
DOCKED: BRANCH   6  21
DOCKED: ATOM     21  O   UNL d   1      20.584  12.696  -5.593 -0.08 +0.05    -0.278 OA
DOCKED: BRANCH  21  22
DOCKED: ATOM     22  P   UNL d   1      19.025  12.871  -5.885 -0.08 -0.12    +0.473 P 
DOCKED: ATOM     23  O   UNL d   1      18.348  14.103  -5.387 -0.10 +0.06    -0.228 OA
DOCKED: BRANCH  22  24
DOCKED: ATOM     24  O   UNL d   1      18.965  12.668  -7.463 -0.05 +0.08    -0.303 OA
DOCKED: ATOM     25  H   UNL d   1      19.326  13.485  -7.893 +0.05 -0.05    +0.222 HD
DOCKED: ENDBRANCH  22  24
DOCKED: BRANCH  22  26
DOCKED: ATOM     26  O   UNL d   1      18.436  11.479  -5.350 -0.16 +0.14    -0.303 OA
DOCKED: ATOM     27  H   UNL d   1      19.153  10.970  -4.920 -0.27 -0.10    +0.222 HD
DOCKED: ENDBRANCH  22  26
DOCKED: ENDBRANCH  21  22
DOCKED: ENDBRANCH   6  21
DOCKED: BRANCH   3  28
DOCKED: ATOM     28  O   UNL d   1      21.830  17.448  -3.097 -0.00 +0.04    -0.278 OA
DOCKED: BRANCH  28  29
DOCKED: ATOM     29  P   UNL d   1      21.116  18.763  -2.553 +0.01 -0.08    +0.473 P 
DOCKED: ATOM     30  O   UNL d   1      21.933  20.003  -2.601 +0.00 +0.02    -0.228 OA
DOCKED: BRANCH  29  31
DOCKED: ATOM     31  O   UNL d   1      19.780  18.740  -3.434 -0.00 +0.08    -0.303 OA
DOCKED: ATOM     32  H   UNL d   1      19.052  18.359  -2.891 +0.02 -0.08    +0.222 HD
DOCKED: ENDBRANCH  29  31
DOCKED: BRANCH  29  33
DOCKED: ATOM     33  O   UNL d   1      20.600  18.296  -1.121 -0.00 +0.06    -0.303 OA
DOCKED: ATOM     34  H   UNL d   1      20.587  17.308  -1.091 +0.02 -0.04    +0.222 HD
DOCKED: ENDBRANCH  29  33
DOCKED: ENDBRANCH  28  29
DOCKED: ENDBRANCH   3  28
DOCKED: BRANCH   5  35
DOCKED: ATOM     35  O   UNL d   1      21.767  12.817  -2.926 -0.05 +0.02    -0.278 OA
DOCKED: BRANCH  35  36
DOCKED: ATOM     36  P   UNL d   1      21.029  11.592  -2.219 -0.13 -0.00    +0.473 P 
DOCKED: ATOM     37  O   UNL d   1      21.912  10.451  -1.821 -0.18 -0.05    -0.228 OA
DOCKED: BRANCH  36  38
DOCKED: ATOM     38  O   UNL d   1      20.297  12.310  -1.001 -0.20 +0.02    -0.303 OA
DOCKED: ATOM     39  H   UNL d   1      19.965  13.185  -1.297 -0.02 -0.04    +0.222 HD
DOCKED: ENDBRANCH  36  38
DOCKED: BRANCH  36  40
DOCKED: ATOM     40  O   UNL d   1      19.851  11.271  -3.238 -0.05 +0.06    -0.303 OA
DOCKED: ATOM     41  H   UNL d   1      19.340  12.078  -3.471 -0.46 -0.10    +0.222 HD
DOCKED: ENDBRANCH  36  40
DOCKED: ENDBRANCH  35  36
DOCKED: ENDBRANCH   5  35
DOCKED: BRANCH   4  42
DOCKED: ATOM     42  O   UNL d   1      20.737  15.220  -1.639 -0.03 +0.05    -0.278 OA
DOCKED: BRANCH  42  43
DOCKED: ATOM     43  P   UNL d   1      19.148  15.077  -1.630 -0.12 -0.16    +0.473 P 
DOCKED: ATOM     44  O   UNL d   1      18.535  14.159  -2.631 -0.18 +0.09    -0.228 OA
DOCKED: BRANCH  43  45
DOCKED: ATOM     45  O   UNL d   1      18.841  14.689  -0.117 -0.17 +0.07    -0.303 OA
DOCKED: ATOM     46  H   UNL d   1      19.129  13.776   0.084 +0.05 -0.02    +0.222 HD
DOCKED: ENDBRANCH  43  45
DOCKED: BRANCH  43  47
DOCKED: ATOM     47  O   UNL d   1      18.643  16.597  -1.685 -0.10 +0.18    -0.303 OA
DOCKED: ATOM     48  H   UNL d   1      19.377  17.170  -1.991 +0.03 -0.08    +0.222 HD
DOCKED: ENDBRANCH  43  47
DOCKED: ENDBRANCH  42  43
DOCKED: ENDBRANCH   4  42
DOCKED: TORSDOF 24
DOCKED: TER
DOCKED: ENDMDL
________________________________________________________________________________


	BEGINNING GENETIC ALGORITHM DOCKING 13 of 100
Run: 13 Seed: 589274121 207305627 [ Run 13 of 100 GA/GALS ]
Beginning LAMARCKIAN GENETIC ALGORITHM (LGA), with a maximum of 25000000 energy evaluations.

Final-Value: -18.706


	FINAL GENETIC ALGORITHM DOCKED STATE
	_______________________________________________


Detailed state:  trans -3.787 -7.748 -13.582 quatxyzw -0.456833 -0.859518 0.185687 -0.134361 center 0.035 0.082 -0.065 ntor 24 87.4569 74.8135 -8.6103 -76.8076 68.3182 -142.2279 -76.0249 -45.4934 31.4859 108.6436 173.4645 137.9111 150.5564 170.6376 118.8501 39.9524 -74.4410 -162.9243 -8.2144 -40.9071 -12.2269 -13.6291 -179.9676 16.5612
State:	 -3.787  -7.748 -13.582  -0.461 -0.867  0.187 -164.557     87.46   74.81   -8.61  -76.81   68.32 -142.23  -76.02  -45.49   31.49  108.64  173.46  137.91  150.56  170.64  118.85   39.95  -74.44 -162.92   -8.21  -40.91  -12.23  -13.63 -179.97   16.56

DOCKED: MODEL       13
DOCKED: USER    Run = 13
DOCKED: USER    DPF = D:/Protein_go_brrr/autodock/final/mut_Y35F/IHP/dock.dpf
DOCKED: USER  
DOCKED: USER    Estimated Free Energy of Binding    =   +2.14 kcal/mol  [=(1)+(2)+(3)-(4)]
DOCKED: USER    
DOCKED: USER    (1) Final Intermolecular Energy     =   -5.02 kcal/mol
DOCKED: USER        vdW + Hbond + desolv Energy     =   -4.83 kcal/mol
DOCKED: USER        Electrostatic Energy            =   -0.19 kcal/mol
DOCKED: USER    (2) Final Total Internal Energy     =  -13.69 kcal/mol
DOCKED: USER    (3) Torsional Free Energy           =   +7.16 kcal/mol
DOCKED: USER    (4) Unbound System's Energy  [=(2)] =  -13.69 kcal/mol
DOCKED: USER    
DOCKED: USER    
DOCKED: USER    NEWDPF move IHP_ideal_opt.pdbqt
DOCKED: USER    NEWDPF about 0.035000 0.082000 -0.065000
DOCKED: USER    NEWDPF tran0 -3.787262 -7.748224 -13.582099
DOCKED: USER    NEWDPF quaternion0 -0.456833 -0.859518 0.185687 -0.134361
DOCKED: USER    NEWDPF axisangle0 -0.461013 -0.867383 0.187386 -164.556672
DOCKED: USER    NEWDPF quat0 -0.461013 -0.867383 0.187386 -164.556672
DOCKED: USER    NEWDPF dihe0 87.46 74.81 -8.61 -76.81 68.32 -142.23 -76.02 -45.49 31.49 108.64 173.46 137.91 150.56 170.64 118.85 39.95 -74.44 -162.92 -8.21 -40.91 -12.23 -13.63 -179.97 16.56 
DOCKED: USER  keepresnum = 1 
DOCKED: USER  
DOCKED: REMARK  24 active torsions:
DOCKED: REMARK  status: ('A' for Active; 'I' for Inactive)
DOCKED: REMARK    1  A    between atoms: C_1  and  O_7 
DOCKED: REMARK    2  A    between atoms: C_2  and  O_12 
DOCKED: REMARK    3  A    between atoms: C_3  and  O_17 
DOCKED: REMARK    4  A    between atoms: C_4  and  O_22 
DOCKED: REMARK    5  A    between atoms: C_5  and  O_27 
DOCKED: REMARK    6  A    between atoms: C_6  and  O_32 
DOCKED: REMARK    7  A    between atoms: O_7  and  P_8 
DOCKED: REMARK    8  A    between atoms: P_8  and  O_10 
DOCKED: REMARK    9  A    between atoms: P_8  and  O_11 
DOCKED: REMARK   10  A    between atoms: O_12  and  P_13 
DOCKED: REMARK   11  A    between atoms: P_13  and  O_15 
DOCKED: REMARK   12  A    between atoms: P_13  and  O_16 
DOCKED: REMARK   13  A    between atoms: O_17  and  P_18 
DOCKED: REMARK   14  A    between atoms: P_18  and  O_20 
DOCKED: REMARK   15  A    between atoms: P_18  and  O_21 
DOCKED: REMARK   16  A    between atoms: O_22  and  P_23 
DOCKED: REMARK   17  A    between atoms: P_23  and  O_25 
DOCKED: REMARK   18  A    between atoms: P_23  and  O_26 
DOCKED: REMARK   19  A    between atoms: O_27  and  P_28 
DOCKED: REMARK   20  A    between atoms: P_28  and  O_30 
DOCKED: REMARK   21  A    between atoms: P_28  and  O_31 
DOCKED: REMARK   22  A    between atoms: O_32  and  P_33 
DOCKED: REMARK   23  A    between atoms: P_33  and  O_35 
DOCKED: REMARK   24  A    between atoms: P_33  and  O_36 
DOCKED: USER                              x       y       z     vdW  Elec       q    Type
DOCKED: USER                           _______ _______ _______ _____ _____    ______ ____
DOCKED: ROOT
DOCKED: ATOM      1  C   UNL d   1      -5.442  -7.313 -13.821 -0.05 -0.01    +0.194 C 
DOCKED: ATOM      2  C   UNL d   1      -5.203  -8.696 -13.212 -0.09 -0.01    +0.194 C 
DOCKED: ATOM      3  C   UNL d   1      -4.062  -9.435 -13.913 -0.08 -0.01    +0.194 C 
DOCKED: ATOM      4  C   UNL d   1      -2.778  -8.614 -14.001 -0.10 -0.00    +0.194 C 
DOCKED: ATOM      5  C   UNL d   1      -2.986  -7.188 -14.496 -0.04 +0.00    +0.194 C 
DOCKED: ATOM      6  C   UNL d   1      -4.166  -6.470 -13.838 -0.06 +0.00    +0.194 C 
DOCKED: ENDROOT
DOCKED: BRANCH   1   7
DOCKED: ATOM      7  O   UNL d   1      -6.396  -6.626 -13.007 -0.08 +0.01    -0.278 OA
DOCKED: BRANCH   7   8
DOCKED: ATOM      8  P   UNL d   1      -7.643  -5.930 -13.723 -0.06 -0.01    +0.473 P 
DOCKED: ATOM      9  O   UNL d   1      -8.287  -4.837 -12.945 -0.60 -0.02    -0.228 OA
DOCKED: BRANCH   8  10
DOCKED: ATOM     10  O   UNL d   1      -7.061  -5.444 -15.127 -0.00 +0.00    -0.303 OA
DOCKED: ATOM     11  H   UNL d   1      -6.445  -4.700 -14.985 +0.01 +0.00    +0.222 HD
DOCKED: ENDBRANCH   8  10
DOCKED: BRANCH   8  12
DOCKED: ATOM     12  O   UNL d   1      -8.593  -7.128 -14.154 -0.03 +0.01    -0.303 OA
DOCKED: ATOM     13  H   UNL d   1      -8.525  -7.908 -13.558 +0.04 -0.02    +0.222 HD
DOCKED: ENDBRANCH   8  12
DOCKED: ENDBRANCH   7   8
DOCKED: ENDBRANCH   1   7
DOCKED: BRANCH   2  14
DOCKED: ATOM     14  O   UNL d   1      -4.866  -8.545 -11.827 +0.14 +0.01    -0.278 OA
DOCKED: BRANCH  14  15
DOCKED: ATOM     15  P   UNL d   1      -6.083  -8.572 -10.787 -0.05 -0.08    +0.473 P 
DOCKED: ATOM     16  O   UNL d   1      -6.090  -7.510  -9.732 -0.35 +0.03    -0.228 OA
DOCKED: BRANCH  15  17
DOCKED: ATOM     17  O   UNL d   1      -7.382  -8.535 -11.709 -0.13 +0.09    -0.303 OA
DOCKED: ATOM     18  H   UNL d   1      -7.795  -7.650 -11.699 -0.37 -0.10    +0.222 HD
DOCKED: ENDBRANCH  15  17
DOCKED: BRANCH  15  19
DOCKED: ATOM     19  O   UNL d   1      -6.114 -10.070 -10.252 -0.25 +0.09    -0.303 OA
DOCKED: ATOM     20  H   UNL d   1      -7.024 -10.418 -10.207 -0.41 -0.13    +0.222 HD
DOCKED: ENDBRANCH  15  19
DOCKED: ENDBRANCH  14  15
DOCKED: ENDBRANCH   2  14
DOCKED: BRANCH   6  21
DOCKED: ATOM     21  O   UNL d   1      -4.439  -5.315 -14.629 -0.01 -0.00    -0.278 OA
DOCKED: BRANCH  21  22
DOCKED: ATOM     22  P   UNL d   1      -4.221  -3.862 -14.009 -0.03 +0.01    +0.473 P 
DOCKED: ATOM     23  O   UNL d   1      -3.822  -2.756 -14.927 -0.02 -0.00    -0.228 OA
DOCKED: BRANCH  22  24
DOCKED: ATOM     24  O   UNL d   1      -5.594  -3.627 -13.239 -0.04 -0.01    -0.303 OA
DOCKED: ATOM     25  H   UNL d   1      -6.147  -4.443 -13.339 +0.04 +0.00    +0.222 HD
DOCKED: ENDBRANCH  22  24
DOCKED: BRANCH  22  26
DOCKED: ATOM     26  O   UNL d   1      -3.213  -4.171 -12.801 -0.06 -0.01    -0.303 OA
DOCKED: ATOM     27  H   UNL d   1      -2.520  -4.789 -13.110 +0.06 +0.01    +0.222 HD
DOCKED: ENDBRANCH  22  26
DOCKED: ENDBRANCH  21  22
DOCKED: ENDBRANCH   6  21
DOCKED: BRANCH   3  28
DOCKED: ATOM     28  O   UNL d   1      -3.732 -10.567 -13.119 -0.14 +0.02    -0.278 OA
DOCKED: BRANCH  28  29
DOCKED: ATOM     29  P   UNL d   1      -4.335 -11.999 -13.469 -0.11 -0.03    +0.473 P 
DOCKED: ATOM     30  O   UNL d   1      -4.961 -12.120 -14.810 -0.04 +0.00    -0.228 OA
DOCKED: BRANCH  29  31
DOCKED: ATOM     31  O   UNL d   1      -3.058 -12.918 -13.178 -0.15 +0.00    -0.303 OA
DOCKED: ATOM     32  H   UNL d   1      -2.247 -12.367 -13.270 +0.07 -0.02    +0.222 HD
DOCKED: ENDBRANCH  29  31
DOCKED: BRANCH  29  33
DOCKED: ATOM     33  O   UNL d   1      -5.268 -12.285 -12.211 -0.22 +0.07    -0.303 OA
DOCKED: ATOM     34  H   UNL d   1      -5.388 -11.446 -11.702 +0.11 -0.05    +0.222 HD
DOCKED: ENDBRANCH  29  33
DOCKED: ENDBRANCH  28  29
DOCKED: ENDBRANCH   3  28
DOCKED: BRANCH   5  35
DOCKED: ATOM     35  O   UNL d   1      -1.805  -6.476 -14.132 -0.05 -0.01    -0.278 OA
DOCKED: BRANCH  35  36
DOCKED: ATOM     36  P   UNL d   1      -1.239  -6.565 -12.643 -0.17 +0.01    +0.473 P 
DOCKED: ATOM     37  O   UNL d   1      -2.263  -6.782 -11.575 -0.19 +0.00    -0.228 OA
DOCKED: BRANCH  36  38
DOCKED: ATOM     38  O   UNL d   1      -0.169  -7.738 -12.772 -0.26 -0.01    -0.303 OA
DOCKED: ATOM     39  H   UNL d   1      -0.524  -8.432 -13.369 +0.09 +0.01    +0.222 HD
DOCKED: ENDBRANCH  36  38
DOCKED: BRANCH  36  40
DOCKED: ATOM     40  O   UNL d   1      -0.352  -5.249 -12.537 -0.19 -0.05    -0.303 OA
DOCKED: ATOM     41  H   UNL d   1      -0.903  -4.436 -12.569 +0.09 +0.04    +0.222 HD
DOCKED: ENDBRANCH  36  40
DOCKED: ENDBRANCH  35  36
DOCKED: ENDBRANCH   5  35
DOCKED: BRANCH   4  42
DOCKED: ATOM     42  O   UNL d   1      -1.931  -9.269 -14.951 -0.04 -0.00    -0.278 OA
DOCKED: BRANCH  42  43
DOCKED: ATOM     43  P   UNL d   1      -0.840 -10.307 -14.424 -0.11 +0.00    +0.473 P 
DOCKED: ATOM     44  O   UNL d   1       0.593  -9.980 -14.668 -0.61 -0.03    -0.228 OA
DOCKED: BRANCH  43  45
DOCKED: ATOM     45  O   UNL d   1      -1.219 -10.460 -12.886 -0.22 +0.04    -0.303 OA
DOCKED: ATOM     46  H   UNL d   1      -1.727 -11.280 -12.722 -0.06 -0.06    +0.222 HD
DOCKED: ENDBRANCH  43  45
DOCKED: BRANCH  43  47
DOCKED: ATOM     47  O   UNL d   1      -1.343 -11.705 -15.024 -0.04 +0.00    -0.303 OA
DOCKED: ATOM     48  H   UNL d   1      -2.314 -11.773 -14.914 +0.05 -0.00    +0.222 HD
DOCKED: ENDBRANCH  43  47
DOCKED: ENDBRANCH  42  43
DOCKED: ENDBRANCH   4  42
DOCKED: TORSDOF 24
DOCKED: TER
DOCKED: ENDMDL
________________________________________________________________________________


	BEGINNING GENETIC ALGORITHM DOCKING 14 of 100
Run: 14 Seed: 1822460220 423088430 [ Run 14 of 100 GA/GALS ]
Beginning LAMARCKIAN GENETIC ALGORITHM (LGA), with a maximum of 25000000 energy evaluations.

Final-Value: -20.408


	FINAL GENETIC ALGORITHM DOCKED STATE
	_______________________________________________


Detailed state:  trans 6.123 -12.665 7.476 quatxyzw 0.400007 0.899306 -0.029596 0.174260 center 0.035 0.082 -0.065 ntor 24 -156.6211 2.5965 170.4844 -12.7850 27.8397 -178.1435 -82.1389 -25.5396 39.8026 23.5560 -34.6656 -104.6197 20.1107 175.3720 154.9002 -4.1926 160.8617 -30.8094 -1.8714 20.6358 -24.3866 7.4956 -8.5406 165.9487
State:	  6.123 -12.665   7.476   0.406  0.913 -0.030 159.929   -156.62    2.60  170.48  -12.79   27.84 -178.14  -82.14  -25.54   39.80   23.56  -34.67 -104.62   20.11  175.37  154.90   -4.19  160.86  -30.81   -1.87   20.64  -24.39    7.50   -8.54  165.95

DOCKED: MODEL       14
DOCKED: USER    Run = 14
DOCKED: USER    DPF = D:/Protein_go_brrr/autodock/final/mut_Y35F/IHP/dock.dpf
DOCKED: USER  
DOCKED: USER    Estimated Free Energy of Binding    =   +2.76 kcal/mol  [=(1)+(2)+(3)-(4)]
DOCKED: USER    
DOCKED: USER    (1) Final Intermolecular Energy     =   -4.40 kcal/mol
DOCKED: USER        vdW + Hbond + desolv Energy     =   -4.42 kcal/mol
DOCKED: USER        Electrostatic Energy            =   +0.02 kcal/mol
DOCKED: USER    (2) Final Total Internal Energy     =  -16.01 kcal/mol
DOCKED: USER    (3) Torsional Free Energy           =   +7.16 kcal/mol
DOCKED: USER    (4) Unbound System's Energy  [=(2)] =  -16.01 kcal/mol
DOCKED: USER    
DOCKED: USER    
DOCKED: USER    NEWDPF move IHP_ideal_opt.pdbqt
DOCKED: USER    NEWDPF about 0.035000 0.082000 -0.065000
DOCKED: USER    NEWDPF tran0 6.123050 -12.665007 7.475931
DOCKED: USER    NEWDPF quaternion0 0.400007 0.899306 -0.029596 0.174260
DOCKED: USER    NEWDPF axisangle0 0.406222 0.913280 -0.030056 159.928757
DOCKED: USER    NEWDPF quat0 0.406222 0.913280 -0.030056 159.928757
DOCKED: USER    NEWDPF dihe0 -156.62 2.60 170.48 -12.79 27.84 -178.14 -82.14 -25.54 39.80 23.56 -34.67 -104.62 20.11 175.37 154.90 -4.19 160.86 -30.81 -1.87 20.64 -24.39 7.50 -8.54 165.95 
DOCKED: USER  keepresnum = 1 
DOCKED: USER  
DOCKED: REMARK  24 active torsions:
DOCKED: REMARK  status: ('A' for Active; 'I' for Inactive)
DOCKED: REMARK    1  A    between atoms: C_1  and  O_7 
DOCKED: REMARK    2  A    between atoms: C_2  and  O_12 
DOCKED: REMARK    3  A    between atoms: C_3  and  O_17 
DOCKED: REMARK    4  A    between atoms: C_4  and  O_22 
DOCKED: REMARK    5  A    between atoms: C_5  and  O_27 
DOCKED: REMARK    6  A    between atoms: C_6  and  O_32 
DOCKED: REMARK    7  A    between atoms: O_7  and  P_8 
DOCKED: REMARK    8  A    between atoms: P_8  and  O_10 
DOCKED: REMARK    9  A    between atoms: P_8  and  O_11 
DOCKED: REMARK   10  A    between atoms: O_12  and  P_13 
DOCKED: REMARK   11  A    between atoms: P_13  and  O_15 
DOCKED: REMARK   12  A    between atoms: P_13  and  O_16 
DOCKED: REMARK   13  A    between atoms: O_17  and  P_18 
DOCKED: REMARK   14  A    between atoms: P_18  and  O_20 
DOCKED: REMARK   15  A    between atoms: P_18  and  O_21 
DOCKED: REMARK   16  A    between atoms: O_22  and  P_23 
DOCKED: REMARK   17  A    between atoms: P_23  and  O_25 
DOCKED: REMARK   18  A    between atoms: P_23  and  O_26 
DOCKED: REMARK   19  A    between atoms: O_27  and  P_28 
DOCKED: REMARK   20  A    between atoms: P_28  and  O_30 
DOCKED: REMARK   21  A    between atoms: P_28  and  O_31 
DOCKED: REMARK   22  A    between atoms: O_32  and  P_33 
DOCKED: REMARK   23  A    between atoms: P_33  and  O_35 
DOCKED: REMARK   24  A    between atoms: P_33  and  O_36 
DOCKED: USER                              x       y       z     vdW  Elec       q    Type
DOCKED: USER                           _______ _______ _______ _____ _____    ______ ____
DOCKED: ROOT
DOCKED: ATOM      1  C   UNL d   1       4.451 -12.285   7.268 -0.10 -0.03    +0.194 C 
DOCKED: ATOM      2  C   UNL d   1       4.778 -13.773   7.408 -0.05 -0.03    +0.194 C 
DOCKED: ATOM      3  C   UNL d   1       6.012 -14.160   6.591 -0.05 -0.03    +0.194 C 
DOCKED: ATOM      4  C   UNL d   1       7.223 -13.274   6.874 -0.04 -0.03    +0.194 C 
DOCKED: ATOM      5  C   UNL d   1       6.917 -11.782   6.859 -0.11 -0.03    +0.194 C 
DOCKED: ATOM      6  C   UNL d   1       5.648 -11.402   7.624 -0.09 -0.02    +0.194 C 
DOCKED: ENDROOT
DOCKED: BRANCH   1   7
DOCKED: ATOM      7  O   UNL d   1       3.402 -11.971   8.188 -0.05 +0.03    -0.278 OA
DOCKED: BRANCH   7   8
DOCKED: ATOM      8  P   UNL d   1       2.070 -11.297   7.618 -0.15 -0.06    +0.473 P 
DOCKED: ATOM      9  O   UNL d   1       1.197 -12.201   6.820 -0.28 +0.04    -0.228 OA
DOCKED: BRANCH   8  10
DOCKED: ATOM     10  O   UNL d   1       1.348 -10.711   8.915 -0.13 +0.03    -0.303 OA
DOCKED: ATOM     11  H   UNL d   1       2.001 -10.245   9.469 +0.08 -0.02    +0.222 HD
DOCKED: ENDBRANCH   8  10
DOCKED: BRANCH   8  12
DOCKED: ATOM     12  O   UNL d   1       2.557  -9.976   6.883 -0.43 +0.00    -0.303 OA
DOCKED: ATOM     13  H   UNL d   1       3.241  -9.483   7.390 +0.12 +0.04    +0.222 HD
DOCKED: ENDBRANCH   8  12
DOCKED: ENDBRANCH   7   8
DOCKED: ENDBRANCH   1   7
DOCKED: BRANCH   2  14
DOCKED: ATOM     14  O   UNL d   1       5.032 -14.068   8.787 -0.00 +0.03    -0.278 OA
DOCKED: BRANCH  14  15
DOCKED: ATOM     15  P   UNL d   1       4.720 -15.563   9.268 +0.00 -0.04    +0.473 P 
DOCKED: ATOM     16  O   UNL d   1       3.868 -15.712  10.489 -0.00 +0.02    -0.228 OA
DOCKED: BRANCH  15  17
DOCKED: ATOM     17  O   UNL d   1       4.084 -16.259   7.983 -0.02 +0.04    -0.303 OA
DOCKED: ATOM     18  H   UNL d   1       4.769 -16.458   7.316 +0.03 -0.03    +0.222 HD
DOCKED: ENDBRANCH  15  17
DOCKED: BRANCH  15  19
DOCKED: ATOM     19  O   UNL d   1       6.146 -16.263   9.337 -0.00 +0.02    -0.303 OA
DOCKED: ATOM     20  H   UNL d   1       6.506 -16.438   8.448 +0.00 -0.02    +0.222 HD
DOCKED: ENDBRANCH  15  19
DOCKED: ENDBRANCH  14  15
DOCKED: ENDBRANCH   2  14
DOCKED: BRANCH   6  21
DOCKED: ATOM     21  O   UNL d   1       5.316 -10.071   7.237 -0.11 +0.02    -0.278 OA
DOCKED: BRANCH  21  22
DOCKED: ATOM     22  P   UNL d   1       5.091  -8.954   8.353 -0.11 -0.03    +0.473 P 
DOCKED: ATOM     23  O   UNL d   1       4.633  -7.603   7.917 -0.51 -0.01    -0.228 OA
DOCKED: BRANCH  22  24
DOCKED: ATOM     24  O   UNL d   1       4.111  -9.696   9.364 -0.08 +0.03    -0.303 OA
DOCKED: ATOM     25  H   UNL d   1       3.473 -10.238   8.833 +0.07 -0.02    +0.222 HD
DOCKED: ENDBRANCH  22  24
DOCKED: BRANCH  22  26
DOCKED: ATOM     26  O   UNL d   1       6.484  -9.002   9.146 -0.04 +0.03    -0.303 OA
DOCKED: ATOM     27  H   UNL d   1       7.107  -9.585   8.668 +0.06 -0.02    +0.222 HD
DOCKED: ENDBRANCH  22  26
DOCKED: ENDBRANCH  21  22
DOCKED: ENDBRANCH   6  21
DOCKED: BRANCH   3  28
DOCKED: ATOM     28  O   UNL d   1       6.399 -15.468   6.994 -0.01 +0.03    -0.278 OA
DOCKED: BRANCH  28  29
DOCKED: ATOM     29  P   UNL d   1       6.396 -16.667   5.946 +0.01 -0.06    +0.473 P 
DOCKED: ATOM     30  O   UNL d   1       5.389 -16.564   4.859 -0.09 +0.05    -0.228 OA
DOCKED: BRANCH  29  31
DOCKED: ATOM     31  O   UNL d   1       7.936 -16.663   5.512 -0.00 +0.03    -0.303 OA
DOCKED: ATOM     32  H   UNL d   1       8.278 -15.741   5.577 +0.03 -0.03    +0.222 HD
DOCKED: ENDBRANCH  29  31
DOCKED: BRANCH  29  33
DOCKED: ATOM     33  O   UNL d   1       6.302 -17.941   6.896 -0.00 +0.03    -0.303 OA
DOCKED: ATOM     34  H   UNL d   1       5.759 -17.710   7.689 +0.01 -0.02    +0.222 HD
DOCKED: ENDBRANCH  29  33
DOCKED: ENDBRANCH  28  29
DOCKED: ENDBRANCH   3  28
DOCKED: BRANCH   5  35
DOCKED: ATOM     35  O   UNL d   1       8.012 -11.155   7.524 -0.06 +0.04    -0.278 OA
DOCKED: BRANCH  35  36
DOCKED: ATOM     36  P   UNL d   1       8.879 -10.044   6.777 -0.15 -0.17    +0.473 P 
DOCKED: ATOM     37  O   UNL d   1      10.281  -9.879   7.271 -0.21 +0.01    -0.228 OA
DOCKED: BRANCH  36  38
DOCKED: ATOM     38  O   UNL d   1       8.771 -10.513   5.259 -0.33 +0.20    -0.303 OA
DOCKED: ATOM     39  H   UNL d   1       8.676 -11.490   5.230 +0.09 -0.08    +0.222 HD
DOCKED: ENDBRANCH  36  38
DOCKED: BRANCH  36  40
DOCKED: ATOM     40  O   UNL d   1       7.932  -8.768   6.851 -0.20 +0.07    -0.303 OA
DOCKED: ATOM     41  H   UNL d   1       7.001  -9.016   7.047 +0.10 -0.03    +0.222 HD
DOCKED: ENDBRANCH  36  40
DOCKED: ENDBRANCH  35  36
DOCKED: ENDBRANCH   5  35
DOCKED: BRANCH   4  42
DOCKED: ATOM     42  O   UNL d   1       8.170 -13.520   5.829 -0.04 +0.04    -0.278 OA
DOCKED: BRANCH  42  43
DOCKED: ATOM     43  P   UNL d   1       7.708 -13.346   4.312 -0.19 -0.08    +0.473 P 
DOCKED: ATOM     44  O   UNL d   1       6.434 -12.616   4.062 -0.82 +0.03    -0.228 OA
DOCKED: BRANCH  43  45
DOCKED: ATOM     45  O   UNL d   1       8.984 -12.680   3.633 -0.29 +0.10    -0.303 OA
DOCKED: ATOM     46  H   UNL d   1       8.827 -11.738   3.423 -0.18 -0.09    +0.222 HD
DOCKED: ENDBRANCH  43  45
DOCKED: BRANCH  43  47
DOCKED: ATOM     47  O   UNL d   1       7.774 -14.840   3.735 -0.13 +0.05    -0.303 OA
DOCKED: ATOM     48  H   UNL d   1       7.017 -15.354   4.085 +0.07 -0.04    +0.222 HD
DOCKED: ENDBRANCH  43  47
DOCKED: ENDBRANCH  42  43
DOCKED: ENDBRANCH   4  42
DOCKED: TORSDOF 24
DOCKED: TER
DOCKED: ENDMDL
________________________________________________________________________________


	BEGINNING GENETIC ALGORITHM DOCKING 15 of 100
Run: 15 Seed: 1806396003 486446185 [ Run 15 of 100 GA/GALS ]
Beginning LAMARCKIAN GENETIC ALGORITHM (LGA), with a maximum of 25000000 energy evaluations.

Final-Value: -18.084


	FINAL GENETIC ALGORITHM DOCKED STATE
	_______________________________________________


Detailed state:  trans 12.081 14.304 5.037 quatxyzw 0.526054 0.502867 0.685845 -0.002893 center 0.035 0.082 -0.065 ntor 24 107.9445 117.7044 97.2326 122.2094 130.6501 -106.4239 129.3062 -110.1488 -11.2451 152.5464 128.7376 141.9501 104.8457 114.0208 115.7809 -136.0018 -62.3682 26.4086 43.1397 -2.2182 -38.7297 14.5491 27.6953 -180.0000
State:	 12.081  14.304   5.037   0.526  0.503  0.686 -179.669    107.94  117.70   97.23  122.21  130.65 -106.42  129.31 -110.15  -11.25  152.55  128.74  141.95  104.85  114.02  115.78 -136.00  -62.37   26.41   43.14   -2.22  -38.73   14.55   27.70 -180.00

DOCKED: MODEL       15
DOCKED: USER    Run = 15
DOCKED: USER    DPF = D:/Protein_go_brrr/autodock/final/mut_Y35F/IHP/dock.dpf
DOCKED: USER  
DOCKED: USER    Estimated Free Energy of Binding    =   +1.47 kcal/mol  [=(1)+(2)+(3)-(4)]
DOCKED: USER    
DOCKED: USER    (1) Final Intermolecular Energy     =   -5.69 kcal/mol
DOCKED: USER        vdW + Hbond + desolv Energy     =   -5.40 kcal/mol
DOCKED: USER        Electrostatic Energy            =   -0.29 kcal/mol
DOCKED: USER    (2) Final Total Internal Energy     =  -12.40 kcal/mol
DOCKED: USER    (3) Torsional Free Energy           =   +7.16 kcal/mol
DOCKED: USER    (4) Unbound System's Energy  [=(2)] =  -12.40 kcal/mol
DOCKED: USER    
DOCKED: USER    
DOCKED: USER    NEWDPF move IHP_ideal_opt.pdbqt
DOCKED: USER    NEWDPF about 0.035000 0.082000 -0.065000
DOCKED: USER    NEWDPF tran0 12.081481 14.304223 5.036726
DOCKED: USER    NEWDPF quaternion0 0.526054 0.502867 0.685845 -0.002893
DOCKED: USER    NEWDPF axisangle0 0.526057 0.502870 0.685847 -179.668533
DOCKED: USER    NEWDPF quat0 0.526057 0.502870 0.685847 -179.668533
DOCKED: USER    NEWDPF dihe0 107.94 117.70 97.23 122.21 130.65 -106.42 129.31 -110.15 -11.25 152.55 128.74 141.95 104.85 114.02 115.78 -136.00 -62.37 26.41 43.14 -2.22 -38.73 14.55 27.70 -180.00 
DOCKED: USER  keepresnum = 1 
DOCKED: USER  
DOCKED: REMARK  24 active torsions:
DOCKED: REMARK  status: ('A' for Active; 'I' for Inactive)
DOCKED: REMARK    1  A    between atoms: C_1  and  O_7 
DOCKED: REMARK    2  A    between atoms: C_2  and  O_12 
DOCKED: REMARK    3  A    between atoms: C_3  and  O_17 
DOCKED: REMARK    4  A    between atoms: C_4  and  O_22 
DOCKED: REMARK    5  A    between atoms: C_5  and  O_27 
DOCKED: REMARK    6  A    between atoms: C_6  and  O_32 
DOCKED: REMARK    7  A    between atoms: O_7  and  P_8 
DOCKED: REMARK    8  A    between atoms: P_8  and  O_10 
DOCKED: REMARK    9  A    between atoms: P_8  and  O_11 
DOCKED: REMARK   10  A    between atoms: O_12  and  P_13 
DOCKED: REMARK   11  A    between atoms: P_13  and  O_15 
DOCKED: REMARK   12  A    between atoms: P_13  and  O_16 
DOCKED: REMARK   13  A    between atoms: O_17  and  P_18 
DOCKED: REMARK   14  A    between atoms: P_18  and  O_20 
DOCKED: REMARK   15  A    between atoms: P_18  and  O_21 
DOCKED: REMARK   16  A    between atoms: O_22  and  P_23 
DOCKED: REMARK   17  A    between atoms: P_23  and  O_25 
DOCKED: REMARK   18  A    between atoms: P_23  and  O_26 
DOCKED: REMARK   19  A    between atoms: O_27  and  P_28 
DOCKED: REMARK   20  A    between atoms: P_28  and  O_30 
DOCKED: REMARK   21  A    between atoms: P_28  and  O_31 
DOCKED: REMARK   22  A    between atoms: O_32  and  P_33 
DOCKED: REMARK   23  A    between atoms: P_33  and  O_35 
DOCKED: REMARK   24  A    between atoms: P_33  and  O_36 
DOCKED: USER                              x       y       z     vdW  Elec       q    Type
DOCKED: USER                           _______ _______ _______ _____ _____    ______ ____
DOCKED: ROOT
DOCKED: ATOM      1  C   UNL d   1      11.629  15.954   5.275 -0.10 -0.03    +0.194 C 
DOCKED: ATOM      2  C   UNL d   1      11.497  15.433   3.843 -0.11 -0.03    +0.194 C 
DOCKED: ATOM      3  C   UNL d   1      12.703  14.585   3.435 -0.08 -0.03    +0.194 C 
DOCKED: ATOM      4  C   UNL d   1      13.018  13.469   4.429 -0.08 -0.01    +0.194 C 
DOCKED: ATOM      5  C   UNL d   1      13.046  13.923   5.883 -0.05 -0.00    +0.194 C 
DOCKED: ATOM      6  C   UNL d   1      11.871  14.822   6.274 -0.11 -0.01    +0.194 C 
DOCKED: ENDROOT
DOCKED: BRANCH   1   7
DOCKED: ATOM      7  O   UNL d   1      10.397  16.584   5.636 -0.17 +0.07    -0.278 OA
DOCKED: BRANCH   7   8
DOCKED: ATOM      8  P   UNL d   1      10.121  18.068   5.112 -0.11 -0.11    +0.473 P 
DOCKED: ATOM      9  O   UNL d   1       8.686  18.454   5.036 -0.27 +0.07    -0.228 OA
DOCKED: BRANCH   8  10
DOCKED: ATOM     10  O   UNL d   1      10.968  18.991   6.100 -0.05 +0.05    -0.303 OA
DOCKED: ATOM     11  H   UNL d   1      10.771  18.747   7.024 +0.04 -0.04    +0.222 HD
DOCKED: ENDBRANCH   8  10
DOCKED: BRANCH   8  12
DOCKED: ATOM     12  O   UNL d   1      10.945  18.187   3.758 -0.03 +0.06    -0.303 OA
DOCKED: ATOM     13  H   UNL d   1      10.546  17.677   3.018 +0.07 -0.05    +0.222 HD
DOCKED: ENDBRANCH   8  12
DOCKED: ENDBRANCH   7   8
DOCKED: ENDBRANCH   1   7
DOCKED: BRANCH   2  14
DOCKED: ATOM     14  O   UNL d   1      10.317  14.624   3.747 -0.19 +0.04    -0.278 OA
DOCKED: BRANCH  14  15
DOCKED: ATOM     15  P   UNL d   1       9.311  14.966   2.550 -0.25 -0.11    +0.473 P 
DOCKED: ATOM     16  O   UNL d   1       8.210  13.984   2.296 -0.34 +0.05    -0.228 OA
DOCKED: BRANCH  15  17
DOCKED: ATOM     17  O   UNL d   1       8.769  16.422   2.901 -0.21 +0.10    -0.303 OA
DOCKED: ATOM     18  H   UNL d   1       9.180  16.762   3.719 +0.08 -0.06    +0.222 HD
DOCKED: ENDBRANCH  15  17
DOCKED: BRANCH  15  19
DOCKED: ATOM     19  O   UNL d   1      10.259  15.268   1.309 -0.25 +0.09    -0.303 OA
DOCKED: ATOM     20  H   UNL d   1      10.790  14.489   1.062 +0.07 -0.07    +0.222 HD
DOCKED: ENDBRANCH  15  19
DOCKED: ENDBRANCH  14  15
DOCKED: ENDBRANCH   2  14
DOCKED: BRANCH   6  21
DOCKED: ATOM     21  O   UNL d   1      12.213  15.428   7.519 -0.06 +0.00    -0.278 OA
DOCKED: BRANCH  21  22
DOCKED: ATOM     22  P   UNL d   1      11.093  15.623   8.638 -0.15 +0.01    +0.473 P 
DOCKED: ATOM     23  O   UNL d   1      11.498  15.504  10.069 -0.13 -0.05    -0.228 OA
DOCKED: BRANCH  22  24
DOCKED: ATOM     24  O   UNL d   1      10.472  17.032   8.235 -0.15 +0.05    -0.303 OA
DOCKED: ATOM     25  H   UNL d   1      10.042  16.937   7.347 -0.36 -0.10    +0.222 HD
DOCKED: ENDBRANCH  22  24
DOCKED: BRANCH  22  26
DOCKED: ATOM     26  O   UNL d   1       9.957  14.606   8.143 -0.12 -0.01    -0.303 OA
DOCKED: ATOM     27  H   UNL d   1      10.203  13.696   8.405 +0.09 +0.03    +0.222 HD
DOCKED: ENDBRANCH  22  26
DOCKED: ENDBRANCH  21  22
DOCKED: ENDBRANCH   6  21
DOCKED: BRANCH   3  28
DOCKED: ATOM     28  O   UNL d   1      12.372  13.925   2.220 -0.18 +0.07    -0.278 OA
DOCKED: BRANCH  28  29
DOCKED: ATOM     29  P   UNL d   1      13.310  14.075   0.941 -0.30 -0.17    +0.473 P 
DOCKED: ATOM     30  O   UNL d   1      12.686  13.713  -0.357 -0.95 +0.07    -0.228 OA
DOCKED: BRANCH  29  31
DOCKED: ATOM     31  O   UNL d   1      13.785  15.593   1.120 -0.17 +0.23    -0.303 OA
DOCKED: ATOM     32  H   UNL d   1      14.375  15.828   0.368 -0.17 -0.36    +0.222 HD
DOCKED: ENDBRANCH  29  31
DOCKED: BRANCH  29  33
DOCKED: ATOM     33  O   UNL d   1      14.600  13.250   1.376 -0.55 +0.02    -0.303 OA
DOCKED: ATOM     34  H   UNL d   1      14.899  13.564   2.264 +0.08 -0.02    +0.222 HD
DOCKED: ENDBRANCH  29  33
DOCKED: ENDBRANCH  28  29
DOCKED: ENDBRANCH   3  28
DOCKED: BRANCH   5  35
DOCKED: ATOM     35  O   UNL d   1      12.942  12.733   6.662 -0.05 -0.01    -0.278 OA
DOCKED: BRANCH  35  36
DOCKED: ATOM     36  P   UNL d   1      13.442  12.716   8.176 -0.02 +0.05    +0.473 P 
DOCKED: ATOM     37  O   UNL d   1      14.368  13.826   8.562 -0.01 -0.02    -0.228 OA
DOCKED: BRANCH  36  38
DOCKED: ATOM     38  O   UNL d   1      12.064  12.706   8.974 -0.07 -0.05    -0.303 OA
DOCKED: ATOM     39  H   UNL d   1      11.715  13.622   9.025 +0.06 +0.03    +0.222 HD
DOCKED: ENDBRANCH  36  38
DOCKED: BRANCH  36  40
DOCKED: ATOM     40  O   UNL d   1      13.988  11.231   8.337 -0.01 -0.04    -0.303 OA
DOCKED: ATOM     41  H   UNL d   1      14.967  11.211   8.431 +0.01 +0.03    +0.222 HD
DOCKED: ENDBRANCH  36  40
DOCKED: ENDBRANCH  35  36
DOCKED: ENDBRANCH   5  35
DOCKED: BRANCH   4  42
DOCKED: ATOM     42  O   UNL d   1      14.329  12.989   4.112 -0.07 +0.00    -0.278 OA
DOCKED: BRANCH  42  43
DOCKED: ATOM     43  P   UNL d   1      15.583  13.937   4.382 -0.02 -0.00    +0.473 P 
DOCKED: ATOM     44  O   UNL d   1      15.983  14.160   5.800 -0.01 -0.00    -0.228 OA
DOCKED: BRANCH  43  45
DOCKED: ATOM     45  O   UNL d   1      16.718  13.279   3.482 -0.08 -0.03    -0.303 OA
DOCKED: ATOM     46  H   UNL d   1      16.437  13.206   2.548 +0.07 +0.02    +0.222 HD
DOCKED: ENDBRANCH  43  45
DOCKED: BRANCH  43  47
DOCKED: ATOM     47  O   UNL d   1      15.231  15.259   3.547 -0.02 +0.05    -0.303 OA
DOCKED: ATOM     48  H   UNL d   1      14.812  15.003   2.699 +0.06 -0.06    +0.222 HD
DOCKED: ENDBRANCH  43  47
DOCKED: ENDBRANCH  42  43
DOCKED: ENDBRANCH   4  42
DOCKED: TORSDOF 24
DOCKED: TER
DOCKED: ENDMDL
________________________________________________________________________________


	BEGINNING GENETIC ALGORITHM DOCKING 16 of 100
Run: 16 Seed: 669029517 883355585 [ Run 16 of 100 GA/GALS ]
Beginning LAMARCKIAN GENETIC ALGORITHM (LGA), with a maximum of 25000000 energy evaluations.

Final-Value: -16.321


	FINAL GENETIC ALGORITHM DOCKED STATE
	_______________________________________________


Detailed state:  trans -8.525 -13.196 12.258 quatxyzw -0.012366 -0.764422 -0.111916 -0.634808 center 0.035 0.082 -0.065 ntor 24 -167.1129 -21.2207 136.0082 -179.9418 11.4388 155.3276 -149.6599 -39.2353 22.3220 106.8352 144.8764 120.6742 -125.9243 -144.6011 -177.2535 -129.9659 -19.7798 111.6107 45.0576 -11.5749 -22.4311 -14.7775 166.4519 -36.7339
State:	 -8.525 -13.196  12.258  -0.016 -0.989 -0.145 -101.188   -167.11  -21.22  136.01 -179.94   11.44  155.33 -149.66  -39.24   22.32  106.84  144.88  120.67 -125.92 -144.60 -177.25 -129.97  -19.78  111.61   45.06  -11.57  -22.43  -14.78  166.45  -36.73

DOCKED: MODEL       16
DOCKED: USER    Run = 16
DOCKED: USER    DPF = D:/Protein_go_brrr/autodock/final/mut_Y35F/IHP/dock.dpf
DOCKED: USER  
DOCKED: USER    Estimated Free Energy of Binding    =   +4.15 kcal/mol  [=(1)+(2)+(3)-(4)]
DOCKED: USER    
DOCKED: USER    (1) Final Intermolecular Energy     =   -3.01 kcal/mol
DOCKED: USER        vdW + Hbond + desolv Energy     =   -3.03 kcal/mol
DOCKED: USER        Electrostatic Energy            =   +0.02 kcal/mol
DOCKED: USER    (2) Final Total Internal Energy     =  -13.31 kcal/mol
DOCKED: USER    (3) Torsional Free Energy           =   +7.16 kcal/mol
DOCKED: USER    (4) Unbound System's Energy  [=(2)] =  -13.31 kcal/mol
DOCKED: USER    
DOCKED: USER    
DOCKED: USER    NEWDPF move IHP_ideal_opt.pdbqt
DOCKED: USER    NEWDPF about 0.035000 0.082000 -0.065000
DOCKED: USER    NEWDPF tran0 -8.525304 -13.195990 12.257834
DOCKED: USER    NEWDPF quaternion0 -0.012366 -0.764422 -0.111916 -0.634808
DOCKED: USER    NEWDPF axisangle0 -0.016004 -0.989325 -0.144843 -101.188489
DOCKED: USER    NEWDPF quat0 -0.016004 -0.989325 -0.144843 -101.188489
DOCKED: USER    NEWDPF dihe0 -167.11 -21.22 136.01 -179.94 11.44 155.33 -149.66 -39.24 22.32 106.84 144.88 120.67 -125.92 -144.60 -177.25 -129.97 -19.78 111.61 45.06 -11.57 -22.43 -14.78 166.45 -36.73 
DOCKED: USER  keepresnum = 1 
DOCKED: USER  
DOCKED: REMARK  24 active torsions:
DOCKED: REMARK  status: ('A' for Active; 'I' for Inactive)
DOCKED: REMARK    1  A    between atoms: C_1  and  O_7 
DOCKED: REMARK    2  A    between atoms: C_2  and  O_12 
DOCKED: REMARK    3  A    between atoms: C_3  and  O_17 
DOCKED: REMARK    4  A    between atoms: C_4  and  O_22 
DOCKED: REMARK    5  A    between atoms: C_5  and  O_27 
DOCKED: REMARK    6  A    between atoms: C_6  and  O_32 
DOCKED: REMARK    7  A    between atoms: O_7  and  P_8 
DOCKED: REMARK    8  A    between atoms: P_8  and  O_10 
DOCKED: REMARK    9  A    between atoms: P_8  and  O_11 
DOCKED: REMARK   10  A    between atoms: O_12  and  P_13 
DOCKED: REMARK   11  A    between atoms: P_13  and  O_15 
DOCKED: REMARK   12  A    between atoms: P_13  and  O_16 
DOCKED: REMARK   13  A    between atoms: O_17  and  P_18 
DOCKED: REMARK   14  A    between atoms: P_18  and  O_20 
DOCKED: REMARK   15  A    between atoms: P_18  and  O_21 
DOCKED: REMARK   16  A    between atoms: O_22  and  P_23 
DOCKED: REMARK   17  A    between atoms: P_23  and  O_25 
DOCKED: REMARK   18  A    between atoms: P_23  and  O_26 
DOCKED: REMARK   19  A    between atoms: O_27  and  P_28 
DOCKED: REMARK   20  A    between atoms: P_28  and  O_30 
DOCKED: REMARK   21  A    between atoms: P_28  and  O_31 
DOCKED: REMARK   22  A    between atoms: O_32  and  P_33 
DOCKED: REMARK   23  A    between atoms: P_33  and  O_35 
DOCKED: REMARK   24  A    between atoms: P_33  and  O_36 
DOCKED: USER                              x       y       z     vdW  Elec       q    Type
DOCKED: USER                           _______ _______ _______ _____ _____    ______ ____
DOCKED: ROOT
DOCKED: ATOM      1  C   UNL d   1      -9.677 -14.068  13.206 -0.02 +0.03    +0.194 C 
DOCKED: ATOM      2  C   UNL d   1      -9.207 -14.767  11.928 -0.03 +0.02    +0.194 C 
DOCKED: ATOM      3  C   UNL d   1      -9.140 -13.799  10.745 -0.14 +0.03    +0.194 C 
DOCKED: ATOM      4  C   UNL d   1      -8.332 -12.539  11.044 -0.15 +0.04    +0.194 C 
DOCKED: ATOM      5  C   UNL d   1      -8.689 -11.872  12.366 -0.09 +0.07    +0.194 C 
DOCKED: ATOM      6  C   UNL d   1      -8.816 -12.848  13.538 -0.03 +0.04    +0.194 C 
DOCKED: ENDROOT
DOCKED: BRANCH   1   7
DOCKED: ATOM      7  O   UNL d   1      -9.547 -14.989  14.291 -0.00 -0.02    -0.278 OA
DOCKED: BRANCH   7   8
DOCKED: ATOM      8  P   UNL d   1     -10.648 -16.135  14.451 +0.00 +0.02    +0.473 P 
DOCKED: ATOM      9  O   UNL d   1     -11.966 -15.676  14.969 +0.00 -0.01    -0.228 OA
DOCKED: BRANCH   8  10
DOCKED: ATOM     10  O   UNL d   1     -10.738 -16.789  12.998 -0.00 -0.01    -0.303 OA
DOCKED: ATOM     11  H   UNL d   1      -9.855 -16.788  12.584 +0.01 +0.01    +0.222 HD
DOCKED: ENDBRANCH   8  10
DOCKED: BRANCH   8  12
DOCKED: ATOM     12  O   UNL d   1      -9.934 -17.281  15.288 +0.00 -0.00    -0.303 OA
DOCKED: ATOM     13  H   UNL d   1      -9.196 -17.711  14.801 +0.00 +0.00    +0.222 HD
DOCKED: ENDBRANCH   8  12
DOCKED: ENDBRANCH   7   8
DOCKED: ENDBRANCH   1   7
DOCKED: BRANCH   2  14
DOCKED: ATOM     14  O   UNL d   1      -7.900 -15.311  12.148 -0.02 -0.01    -0.278 OA
DOCKED: BRANCH  14  15
DOCKED: ATOM     15  P   UNL d   1      -7.747 -16.896  11.980 -0.00 +0.00    +0.473 P 
DOCKED: ATOM     16  O   UNL d   1      -7.989 -17.727  13.202 -0.00 -0.00    -0.228 OA
DOCKED: BRANCH  15  17
DOCKED: ATOM     17  O   UNL d   1      -8.735 -17.257  10.783 -0.01 -0.00    -0.303 OA
DOCKED: ATOM     18  H   UNL d   1      -8.692 -16.583  10.078 +0.05 +0.00    +0.222 HD
DOCKED: ENDBRANCH  15  17
DOCKED: BRANCH  15  19
DOCKED: ATOM     19  O   UNL d   1      -6.326 -17.088  11.291 -0.02 +0.00    -0.303 OA
DOCKED: ATOM     20  H   UNL d   1      -5.728 -17.627  11.841 +0.01 -0.00    +0.222 HD
DOCKED: ENDBRANCH  15  19
DOCKED: ENDBRANCH  14  15
DOCKED: ENDBRANCH   2  14
DOCKED: BRANCH   6  21
DOCKED: ATOM     21  O   UNL d   1      -9.474 -12.146  14.590 -0.02 -0.06    -0.278 OA
DOCKED: BRANCH  21  22
DOCKED: ATOM     22  P   UNL d   1      -8.790 -12.054  16.028 +0.01 +0.03    +0.473 P 
DOCKED: ATOM     23  O   UNL d   1      -9.676 -12.026  17.229 +0.00 -0.01    -0.228 OA
DOCKED: BRANCH  22  24
DOCKED: ATOM     24  O   UNL d   1      -7.768 -13.272  15.982 +0.00 -0.01    -0.303 OA
DOCKED: ATOM     25  H   UNL d   1      -8.275 -14.092  15.754 +0.00 +0.01    +0.222 HD
DOCKED: ENDBRANCH  22  24
DOCKED: BRANCH  22  26
DOCKED: ATOM     26  O   UNL d   1      -7.815 -10.795  15.845 -0.01 -0.01    -0.303 OA
DOCKED: ATOM     27  H   UNL d   1      -7.674 -10.633  14.890 +0.04 +0.01    +0.222 HD
DOCKED: ENDBRANCH  22  26
DOCKED: ENDBRANCH  21  22
DOCKED: ENDBRANCH   6  21
DOCKED: BRANCH   3  28
DOCKED: ATOM     28  O   UNL d   1      -8.442 -14.455   9.694 -0.13 -0.00    -0.278 OA
DOCKED: BRANCH  28  29
DOCKED: ATOM     29  P   UNL d   1      -9.243 -15.211   8.545 -0.18 -0.00    +0.473 P 
DOCKED: ATOM     30  O   UNL d   1      -8.498 -16.290   7.846 -0.25 +0.00    -0.228 OA
DOCKED: BRANCH  29  31
DOCKED: ATOM     31  O   UNL d   1     -10.554 -15.642   9.355 -0.10 -0.01    -0.303 OA
DOCKED: ATOM     32  H   UNL d   1     -10.451 -16.578   9.645 +0.06 +0.00    +0.222 HD
DOCKED: ENDBRANCH  29  31
DOCKED: BRANCH  29  33
DOCKED: ATOM     33  O   UNL d   1      -9.765 -14.002   7.650 -0.29 +0.02    -0.303 OA
DOCKED: ATOM     34  H   UNL d   1      -9.215 -13.202   7.838 -0.41 -0.07    +0.222 HD
DOCKED: ENDBRANCH  29  33
DOCKED: ENDBRANCH  28  29
DOCKED: ENDBRANCH   3  28
DOCKED: BRANCH   5  35
DOCKED: ATOM     35  O   UNL d   1      -7.602 -10.998  12.664 -0.09 -0.05    -0.278 OA
DOCKED: BRANCH  35  36
DOCKED: ATOM     36  P   UNL d   1      -6.140 -11.587  12.913 -0.05 +0.01    +0.473 P 
DOCKED: ATOM     37  O   UNL d   1      -5.864 -12.914  12.279 -0.04 -0.00    -0.228 OA
DOCKED: BRANCH  36  38
DOCKED: ATOM     38  O   UNL d   1      -5.217 -10.403  12.382 -0.15 +0.01    -0.303 OA
DOCKED: ATOM     39  H   UNL d   1      -5.544 -10.110  11.505 +0.08 -0.01    +0.222 HD
DOCKED: ENDBRANCH  36  38
DOCKED: BRANCH  36  40
DOCKED: ATOM     40  O   UNL d   1      -6.003 -11.500  14.495 -0.03 +0.00    -0.303 OA
DOCKED: ATOM     41  H   UNL d   1      -6.643 -12.093  14.949 +0.02 +0.00    +0.222 HD
DOCKED: ENDBRANCH  36  40
DOCKED: ENDBRANCH  35  36
DOCKED: ENDBRANCH   5  35
DOCKED: BRANCH   4  42
DOCKED: ATOM     42  O   UNL d   1      -8.630 -11.600  10.005 -0.18 -0.07    -0.278 OA
DOCKED: BRANCH  42  43
DOCKED: ATOM     43  P   UNL d   1      -7.497 -10.575   9.544 -0.18 -0.01    +0.473 P 
DOCKED: ATOM     44  O   UNL d   1      -7.617  -9.987   8.180 -0.41 +0.03    -0.228 OA
DOCKED: BRANCH  43  45
DOCKED: ATOM     45  O   UNL d   1      -7.499  -9.501  10.718 -0.25 -0.01    -0.303 OA
DOCKED: ATOM     46  H   UNL d   1      -7.113  -9.868  11.539 +0.08 +0.01    +0.222 HD
DOCKED: ENDBRANCH  43  45
DOCKED: BRANCH  43  47
DOCKED: ATOM     47  O   UNL d   1      -6.139 -11.375   9.835 -0.18 +0.03    -0.303 OA
DOCKED: ATOM     48  H   UNL d   1      -6.086 -11.582  10.791 +0.08 -0.01    +0.222 HD
DOCKED: ENDBRANCH  43  47
DOCKED: ENDBRANCH  42  43
DOCKED: ENDBRANCH   4  42
DOCKED: TORSDOF 24
DOCKED: TER
DOCKED: ENDMDL
________________________________________________________________________________


	BEGINNING GENETIC ALGORITHM DOCKING 17 of 100
Run: 17 Seed: 27929184 1600314347 [ Run 17 of 100 GA/GALS ]
Beginning LAMARCKIAN GENETIC ALGORITHM (LGA), with a maximum of 25000000 energy evaluations.

Final-Value: -16.427


	FINAL GENETIC ALGORITHM DOCKED STATE
	_______________________________________________


Detailed state:  trans 12.046 15.649 -8.660 quatxyzw -0.106386 0.576452 -0.697060 0.412908 center 0.035 0.082 -0.065 ntor 24 90.6316 82.0697 180.0000 -28.0649 114.1590 174.7679 8.8310 -110.8043 144.1531 78.1880 138.3819 100.0112 -24.6472 173.9803 165.9124 -103.4965 4.1337 39.5787 180.0000 22.3738 -16.6123 24.9619 173.3725 -168.0320
State:	 12.046  15.649  -8.660  -0.117  0.633 -0.765 131.225     90.63   82.07  180.00  -28.06  114.16  174.77    8.83 -110.80  144.15   78.19  138.38  100.01  -24.65  173.98  165.91 -103.50    4.13   39.58  180.00   22.37  -16.61   24.96  173.37 -168.03

DOCKED: MODEL       17
DOCKED: USER    Run = 17
DOCKED: USER    DPF = D:/Protein_go_brrr/autodock/final/mut_Y35F/IHP/dock.dpf
DOCKED: USER  
DOCKED: USER    Estimated Free Energy of Binding    =   +3.27 kcal/mol  [=(1)+(2)+(3)-(4)]
DOCKED: USER    
DOCKED: USER    (1) Final Intermolecular Energy     =   -3.88 kcal/mol
DOCKED: USER        vdW + Hbond + desolv Energy     =   -3.75 kcal/mol
DOCKED: USER        Electrostatic Energy            =   -0.13 kcal/mol
DOCKED: USER    (2) Final Total Internal Energy     =  -12.54 kcal/mol
DOCKED: USER    (3) Torsional Free Energy           =   +7.16 kcal/mol
DOCKED: USER    (4) Unbound System's Energy  [=(2)] =  -12.54 kcal/mol
DOCKED: USER    
DOCKED: USER    
DOCKED: USER    NEWDPF move IHP_ideal_opt.pdbqt
DOCKED: USER    NEWDPF about 0.035000 0.082000 -0.065000
DOCKED: USER    NEWDPF tran0 12.045746 15.648719 -8.660127
DOCKED: USER    NEWDPF quaternion0 -0.106386 0.576452 -0.697060 0.412908
DOCKED: USER    NEWDPF axisangle0 -0.116808 0.632926 -0.765350 131.224714
DOCKED: USER    NEWDPF quat0 -0.116808 0.632926 -0.765350 131.224714
DOCKED: USER    NEWDPF dihe0 90.63 82.07 180.00 -28.06 114.16 174.77 8.83 -110.80 144.15 78.19 138.38 100.01 -24.65 173.98 165.91 -103.50 4.13 39.58 180.00 22.37 -16.61 24.96 173.37 -168.03 
DOCKED: USER  keepresnum = 1 
DOCKED: USER  
DOCKED: REMARK  24 active torsions:
DOCKED: REMARK  status: ('A' for Active; 'I' for Inactive)
DOCKED: REMARK    1  A    between atoms: C_1  and  O_7 
DOCKED: REMARK    2  A    between atoms: C_2  and  O_12 
DOCKED: REMARK    3  A    between atoms: C_3  and  O_17 
DOCKED: REMARK    4  A    between atoms: C_4  and  O_22 
DOCKED: REMARK    5  A    between atoms: C_5  and  O_27 
DOCKED: REMARK    6  A    between atoms: C_6  and  O_32 
DOCKED: REMARK    7  A    between atoms: O_7  and  P_8 
DOCKED: REMARK    8  A    between atoms: P_8  and  O_10 
DOCKED: REMARK    9  A    between atoms: P_8  and  O_11 
DOCKED: REMARK   10  A    between atoms: O_12  and  P_13 
DOCKED: REMARK   11  A    between atoms: P_13  and  O_15 
DOCKED: REMARK   12  A    between atoms: P_13  and  O_16 
DOCKED: REMARK   13  A    between atoms: O_17  and  P_18 
DOCKED: REMARK   14  A    between atoms: P_18  and  O_20 
DOCKED: REMARK   15  A    between atoms: P_18  and  O_21 
DOCKED: REMARK   16  A    between atoms: O_22  and  P_23 
DOCKED: REMARK   17  A    between atoms: P_23  and  O_25 
DOCKED: REMARK   18  A    between atoms: P_23  and  O_26 
DOCKED: REMARK   19  A    between atoms: O_27  and  P_28 
DOCKED: REMARK   20  A    between atoms: P_28  and  O_30 
DOCKED: REMARK   21  A    between atoms: P_28  and  O_31 
DOCKED: REMARK   22  A    between atoms: O_32  and  P_33 
DOCKED: REMARK   23  A    between atoms: P_33  and  O_35 
DOCKED: REMARK   24  A    between atoms: P_33  and  O_36 
DOCKED: USER                              x       y       z     vdW  Elec       q    Type
DOCKED: USER                           _______ _______ _______ _____ _____    ______ ____
DOCKED: ROOT
DOCKED: ATOM      1  C   UNL d   1      11.609  15.506  -6.995 -0.13 -0.03    +0.194 C 
DOCKED: ATOM      2  C   UNL d   1      13.086  15.265  -7.314 -0.16 -0.06    +0.194 C 
DOCKED: ATOM      3  C   UNL d   1      13.262  14.406  -8.568 -0.11 -0.04    +0.194 C 
DOCKED: ATOM      4  C   UNL d   1      12.490  14.937  -9.773 -0.06 -0.03    +0.194 C 
DOCKED: ATOM      5  C   UNL d   1      11.041  15.299  -9.472 -0.11 -0.02    +0.194 C 
DOCKED: ATOM      6  C   UNL d   1      10.859  16.106  -8.185 -0.14 -0.01    +0.194 C 
DOCKED: ENDROOT
DOCKED: BRANCH   1   7
DOCKED: ATOM      7  O   UNL d   1      11.533  16.450  -5.924 -0.05 +0.10    -0.278 OA
DOCKED: BRANCH   7   8
DOCKED: ATOM      8  P   UNL d   1      12.222  17.877  -6.119 -0.08 -0.23    +0.473 P 
DOCKED: ATOM      9  O   UNL d   1      12.326  18.340  -7.529 -0.03 +0.05    -0.228 OA
DOCKED: BRANCH   8  10
DOCKED: ATOM     10  O   UNL d   1      11.358  18.853  -5.199 -0.08 +0.13    -0.303 OA
DOCKED: ATOM     11  H   UNL d   1      10.459  18.939  -5.569 +0.04 -0.04    +0.222 HD
DOCKED: ENDBRANCH   8  10
DOCKED: BRANCH   8  12
DOCKED: ATOM     12  O   UNL d   1      13.590  17.789  -5.315 +0.01 +0.38    -0.303 OA
DOCKED: ATOM     13  H   UNL d   1      14.016  16.904  -5.376 -0.23 -0.29    +0.222 HD
DOCKED: ENDBRANCH   8  12
DOCKED: ENDBRANCH   7   8
DOCKED: ENDBRANCH   1   7
DOCKED: BRANCH   2  14
DOCKED: ATOM     14  O   UNL d   1      13.728  16.528  -7.531 -0.04 +0.09    -0.278 OA
DOCKED: BRANCH  14  15
DOCKED: ATOM     15  P   UNL d   1      15.303  16.588  -7.244 -0.03 -0.17    +0.473 P 
DOCKED: ATOM     16  O   UNL d   1      15.786  17.714  -6.384 -0.05 +0.11    -0.228 OA
DOCKED: BRANCH  15  17
DOCKED: ATOM     17  O   UNL d   1      15.641  15.156  -6.634 -0.07 +0.11    -0.303 OA
DOCKED: ATOM     18  H   UNL d   1      15.792  14.499  -7.340 +0.06 -0.06    +0.222 HD
DOCKED: ENDBRANCH  15  17
DOCKED: BRANCH  15  19
DOCKED: ATOM     19  O   UNL d   1      15.973  16.488  -8.683 -0.00 +0.06    -0.303 OA
DOCKED: ATOM     20  H   UNL d   1      16.114  15.561  -8.951 +0.02 -0.04    +0.222 HD
DOCKED: ENDBRANCH  15  19
DOCKED: ENDBRANCH  14  15
DOCKED: ENDBRANCH   2  14
DOCKED: BRANCH   6  21
DOCKED: ATOM     21  O   UNL d   1       9.470  16.066  -7.866 -0.20 -0.02    -0.278 OA
DOCKED: BRANCH  21  22
DOCKED: ATOM     22  P   UNL d   1       8.634  17.424  -7.800 -0.10 +0.08    +0.473 P 
DOCKED: ATOM     23  O   UNL d   1       7.306  17.401  -7.122 -0.51 -0.13    -0.228 OA
DOCKED: BRANCH  22  24
DOCKED: ATOM     24  O   UNL d   1       9.692  18.426  -7.161 -0.06 -0.01    -0.303 OA
DOCKED: ATOM     25  H   UNL d   1      10.547  18.327  -7.652 +0.04 -0.02    +0.222 HD
DOCKED: ENDBRANCH  22  24
DOCKED: BRANCH  22  26
DOCKED: ATOM     26  O   UNL d   1       8.631  17.880  -9.337 -0.03 -0.02    -0.303 OA
DOCKED: ATOM     27  H   UNL d   1       9.116  17.218  -9.870 +0.05 +0.01    +0.222 HD
DOCKED: ENDBRANCH  22  26
DOCKED: ENDBRANCH  21  22
DOCKED: ENDBRANCH   6  21
DOCKED: BRANCH   3  28
DOCKED: ATOM     28  O   UNL d   1      14.632  14.468  -8.941 -0.03 +0.06    -0.278 OA
DOCKED: BRANCH  28  29
DOCKED: ATOM     29  P   UNL d   1      15.412  13.145  -9.363 -0.03 -0.11    +0.473 P 
DOCKED: ATOM     30  O   UNL d   1      16.708  12.917  -8.674 -0.06 +0.05    -0.228 OA
DOCKED: BRANCH  29  31
DOCKED: ATOM     31  O   UNL d   1      14.262  12.057  -9.127 -0.14 +0.12    -0.303 OA
DOCKED: ATOM     32  H   UNL d   1      13.500  12.274  -9.712 -0.06 -0.09    +0.222 HD
DOCKED: ENDBRANCH  29  31
DOCKED: BRANCH  29  33
DOCKED: ATOM     33  O   UNL d   1      15.453  13.274 -10.950 -0.03 +0.06    -0.303 OA
DOCKED: ATOM     34  H   UNL d   1      14.538  13.442 -11.282 +0.05 -0.04    +0.222 HD
DOCKED: ENDBRANCH  29  33
DOCKED: ENDBRANCH  28  29
DOCKED: ENDBRANCH   3  28
DOCKED: BRANCH   5  35
DOCKED: ATOM     35  O   UNL d   1      10.617  16.129 -10.551 -0.03 +0.02    -0.278 OA
DOCKED: BRANCH  35  36
DOCKED: ATOM     36  P   UNL d   1      11.424  17.458 -10.909 +0.01 -0.03    +0.473 P 
DOCKED: ATOM     37  O   UNL d   1      12.907  17.301 -11.022 -0.00 +0.02    -0.228 OA
DOCKED: BRANCH  36  38
DOCKED: ATOM     38  O   UNL d   1      10.711  17.920 -12.256 -0.00 +0.01    -0.303 OA
DOCKED: ATOM     39  H   UNL d   1       9.829  18.294 -12.040 +0.01 -0.01    +0.222 HD
DOCKED: ENDBRANCH  36  38
DOCKED: BRANCH  36  40
DOCKED: ATOM     40  O   UNL d   1      10.888  18.485  -9.820 -0.00 +0.02    -0.303 OA
DOCKED: ATOM     41  H   UNL d   1      10.729  18.048  -8.954 +0.03 -0.01    +0.222 HD
DOCKED: ENDBRANCH  36  40
DOCKED: ENDBRANCH  35  36
DOCKED: ENDBRANCH   5  35
DOCKED: BRANCH   4  42
DOCKED: ATOM     42  O   UNL d   1      12.467  13.887 -10.746 -0.06 +0.05    -0.278 OA
DOCKED: BRANCH  42  43
DOCKED: ATOM     43  P   UNL d   1      11.397  12.714 -10.591 -0.19 -0.11    +0.473 P 
DOCKED: ATOM     44  O   UNL d   1      10.039  12.944 -11.158 -0.27 +0.03    -0.228 OA
DOCKED: BRANCH  43  45
DOCKED: ATOM     45  O   UNL d   1      12.159  11.463 -11.213 -0.16 +0.11    -0.303 OA
DOCKED: ATOM     46  H   UNL d   1      12.940  11.218 -10.678 -0.29 -0.15    +0.222 HD
DOCKED: ENDBRANCH  43  45
DOCKED: BRANCH  43  47
DOCKED: ATOM     47  O   UNL d   1      11.445  12.379  -9.024 -0.22 +0.08    -0.303 OA
DOCKED: ATOM     48  H   UNL d   1      12.211  11.796  -8.842 -0.26 -0.10    +0.222 HD
DOCKED: ENDBRANCH  43  47
DOCKED: ENDBRANCH  42  43
DOCKED: ENDBRANCH   4  42
DOCKED: TORSDOF 24
DOCKED: TER
DOCKED: ENDMDL
________________________________________________________________________________


	BEGINNING GENETIC ALGORITHM DOCKING 18 of 100
Run: 18 Seed: 625975992 1079793507 [ Run 18 of 100 GA/GALS ]
Beginning LAMARCKIAN GENETIC ALGORITHM (LGA), with a maximum of 25000000 energy evaluations.

Final-Value: -17.349


	FINAL GENETIC ALGORITHM DOCKED STATE
	_______________________________________________


Detailed state:  trans -15.296 -4.391 -6.533 quatxyzw -0.059733 -0.929232 -0.362897 -0.035591 center 0.035 0.082 -0.065 ntor 24 134.1796 116.2391 69.2029 95.9128 34.6977 -75.9622 -11.9935 -86.8926 96.1033 -4.0081 -19.1280 -101.4083 150.0051 130.7762 -20.1096 92.1275 -167.6648 -64.4976 15.1233 -10.3092 143.0771 -7.6979 -19.2748 158.8408
State:	-15.296  -4.391  -6.533  -0.060 -0.930 -0.363 -175.921    134.18  116.24   69.20   95.91   34.70  -75.96  -11.99  -86.89   96.10   -4.01  -19.13 -101.41  150.01  130.78  -20.11   92.13 -167.66  -64.50   15.12  -10.31  143.08   -7.70  -19.27  158.84

DOCKED: MODEL       18
DOCKED: USER    Run = 18
DOCKED: USER    DPF = D:/Protein_go_brrr/autodock/final/mut_Y35F/IHP/dock.dpf
DOCKED: USER  
DOCKED: USER    Estimated Free Energy of Binding    =   +3.26 kcal/mol  [=(1)+(2)+(3)-(4)]
DOCKED: USER    
DOCKED: USER    (1) Final Intermolecular Energy     =   -3.90 kcal/mol
DOCKED: USER        vdW + Hbond + desolv Energy     =   -3.84 kcal/mol
DOCKED: USER        Electrostatic Energy            =   -0.05 kcal/mol
DOCKED: USER    (2) Final Total Internal Energy     =  -13.45 kcal/mol
DOCKED: USER    (3) Torsional Free Energy           =   +7.16 kcal/mol
DOCKED: USER    (4) Unbound System's Energy  [=(2)] =  -13.45 kcal/mol
DOCKED: USER    
DOCKED: USER    
DOCKED: USER    NEWDPF move IHP_ideal_opt.pdbqt
DOCKED: USER    NEWDPF about 0.035000 0.082000 -0.065000
DOCKED: USER    NEWDPF tran0 -15.295976 -4.390936 -6.532554
DOCKED: USER    NEWDPF quaternion0 -0.059733 -0.929232 -0.362897 -0.035591
DOCKED: USER    NEWDPF axisangle0 -0.059771 -0.929821 -0.363127 -175.920724
DOCKED: USER    NEWDPF quat0 -0.059771 -0.929821 -0.363127 -175.920724
DOCKED: USER    NEWDPF dihe0 134.18 116.24 69.20 95.91 34.70 -75.96 -11.99 -86.89 96.10 -4.01 -19.13 -101.41 150.01 130.78 -20.11 92.13 -167.66 -64.50 15.12 -10.31 143.08 -7.70 -19.27 158.84 
DOCKED: USER  keepresnum = 1 
DOCKED: USER  
DOCKED: REMARK  24 active torsions:
DOCKED: REMARK  status: ('A' for Active; 'I' for Inactive)
DOCKED: REMARK    1  A    between atoms: C_1  and  O_7 
DOCKED: REMARK    2  A    between atoms: C_2  and  O_12 
DOCKED: REMARK    3  A    between atoms: C_3  and  O_17 
DOCKED: REMARK    4  A    between atoms: C_4  and  O_22 
DOCKED: REMARK    5  A    between atoms: C_5  and  O_27 
DOCKED: REMARK    6  A    between atoms: C_6  and  O_32 
DOCKED: REMARK    7  A    between atoms: O_7  and  P_8 
DOCKED: REMARK    8  A    between atoms: P_8  and  O_10 
DOCKED: REMARK    9  A    between atoms: P_8  and  O_11 
DOCKED: REMARK   10  A    between atoms: O_12  and  P_13 
DOCKED: REMARK   11  A    between atoms: P_13  and  O_15 
DOCKED: REMARK   12  A    between atoms: P_13  and  O_16 
DOCKED: REMARK   13  A    between atoms: O_17  and  P_18 
DOCKED: REMARK   14  A    between atoms: P_18  and  O_20 
DOCKED: REMARK   15  A    between atoms: P_18  and  O_21 
DOCKED: REMARK   16  A    between atoms: O_22  and  P_23 
DOCKED: REMARK   17  A    between atoms: P_23  and  O_25 
DOCKED: REMARK   18  A    between atoms: P_23  and  O_26 
DOCKED: REMARK   19  A    between atoms: O_27  and  P_28 
DOCKED: REMARK   20  A    between atoms: P_28  and  O_30 
DOCKED: REMARK   21  A    between atoms: P_28  and  O_31 
DOCKED: REMARK   22  A    between atoms: O_32  and  P_33 
DOCKED: REMARK   23  A    between atoms: P_33  and  O_35 
DOCKED: REMARK   24  A    between atoms: P_33  and  O_36 
DOCKED: USER                              x       y       z     vdW  Elec       q    Type
DOCKED: USER                           _______ _______ _______ _____ _____    ______ ____
DOCKED: ROOT
DOCKED: ATOM      1  C   UNL d   1     -16.676  -4.395  -7.571 -0.04 +0.01    +0.194 C 
DOCKED: ATOM      2  C   UNL d   1     -15.542  -5.338  -7.976 -0.10 +0.01    +0.194 C 
DOCKED: ATOM      3  C   UNL d   1     -14.172  -4.672  -7.832 -0.14 +0.01    +0.194 C 
DOCKED: ATOM      4  C   UNL d   1     -13.946  -4.054  -6.455 +0.07 +0.03    +0.194 C 
DOCKED: ATOM      5  C   UNL d   1     -15.104  -3.196  -5.961 -0.12 +0.02    +0.194 C 
DOCKED: ATOM      6  C   UNL d   1     -16.479  -3.837  -6.161 -0.06 +0.01    +0.194 C 
DOCKED: ENDROOT
DOCKED: BRANCH   1   7
DOCKED: ATOM      7  O   UNL d   1     -17.896  -5.141  -7.567 -0.01 -0.01    -0.278 OA
DOCKED: BRANCH   7   8
DOCKED: ATOM      8  P   UNL d   1     -18.952  -4.876  -8.737 -0.00 +0.01    +0.473 P 
DOCKED: ATOM      9  O   UNL d   1     -20.352  -5.272  -8.425 -0.00 -0.00    -0.228 OA
DOCKED: BRANCH   8  10
DOCKED: ATOM     10  O   UNL d   1     -18.795  -3.320  -9.054 -0.00 -0.01    -0.303 OA
DOCKED: ATOM     11  H   UNL d   1     -18.428  -2.863  -8.274 +0.00 +0.01    +0.222 HD
DOCKED: ENDBRANCH   8  10
DOCKED: BRANCH   8  12
DOCKED: ATOM     12  O   UNL d   1     -18.313  -5.544 -10.029 -0.00 -0.00    -0.303 OA
DOCKED: ATOM     13  H   UNL d   1     -18.318  -6.528  -9.996 +0.02 +0.00    +0.222 HD
DOCKED: ENDBRANCH   8  12
DOCKED: ENDBRANCH   7   8
DOCKED: ENDBRANCH   1   7
DOCKED: BRANCH   2  14
DOCKED: ATOM     14  O   UNL d   1     -15.576  -6.498  -7.134 +0.00 -0.01    -0.278 OA
DOCKED: BRANCH  14  15
DOCKED: ATOM     15  P   UNL d   1     -15.750  -7.910  -7.868 -0.17 +0.00    +0.473 P 
DOCKED: ATOM     16  O   UNL d   1     -15.931  -9.107  -6.987 -0.34 -0.00    -0.228 OA
DOCKED: BRANCH  15  17
DOCKED: ATOM     17  O   UNL d   1     -16.975  -7.683  -8.860 -0.06 -0.01    -0.303 OA
DOCKED: ATOM     18  H   UNL d   1     -17.570  -6.982  -8.530 +0.04 +0.00    +0.222 HD
DOCKED: ENDBRANCH  15  17
DOCKED: BRANCH  15  19
DOCKED: ATOM     19  O   UNL d   1     -14.526  -7.984  -8.882 -0.18 -0.01    -0.303 OA
DOCKED: ATOM     20  H   UNL d   1     -13.723  -7.576  -8.508 -0.12 -0.02    +0.222 HD
DOCKED: ENDBRANCH  15  19
DOCKED: ENDBRANCH  14  15
DOCKED: ENDBRANCH   2  14
DOCKED: BRANCH   6  21
DOCKED: ATOM     21  O   UNL d   1     -17.445  -2.805  -5.980 -0.01 -0.02    -0.278 OA
DOCKED: BRANCH  21  22
DOCKED: ATOM     22  P   UNL d   1     -17.172  -1.351  -6.578 +0.00 +0.02    +0.473 P 
DOCKED: ATOM     23  O   UNL d   1     -16.017  -1.176  -7.505 -0.01 -0.01    -0.228 OA
DOCKED: BRANCH  22  24
DOCKED: ATOM     24  O   UNL d   1     -18.590  -0.985  -7.202 -0.00 -0.01    -0.303 OA
DOCKED: ATOM     25  H   UNL d   1     -19.019  -1.825  -7.508 +0.00 +0.01    +0.222 HD
DOCKED: ENDBRANCH  22  24
DOCKED: BRANCH  22  26
DOCKED: ATOM     26  O   UNL d   1     -17.152  -0.452  -5.252 -0.01 -0.02    -0.303 OA
DOCKED: ATOM     27  H   UNL d   1     -16.238  -0.144  -5.085 +0.03 +0.02    +0.222 HD
DOCKED: ENDBRANCH  22  26
DOCKED: ENDBRANCH  21  22
DOCKED: ENDBRANCH   6  21
DOCKED: BRANCH   3  28
DOCKED: ATOM     28  O   UNL d   1     -13.186  -5.688  -7.957 -0.26 -0.01    -0.278 OA
DOCKED: BRANCH  28  29
DOCKED: ATOM     29  P   UNL d   1     -12.366  -5.852  -9.312 -0.23 +0.01    +0.473 P 
DOCKED: ATOM     30  O   UNL d   1     -11.457  -4.727  -9.651 -0.19 -0.01    -0.228 OA
DOCKED: BRANCH  29  31
DOCKED: ATOM     31  O   UNL d   1     -11.691  -7.281  -9.060 -0.33 +0.01    -0.303 OA
DOCKED: ATOM     32  H   UNL d   1     -12.350  -7.866  -8.620 -0.37 -0.03    +0.222 HD
DOCKED: ENDBRANCH  29  31
DOCKED: BRANCH  29  33
DOCKED: ATOM     33  O   UNL d   1     -13.517  -6.187 -10.360 -0.10 -0.01    -0.303 OA
DOCKED: ATOM     34  H   UNL d   1     -14.263  -6.631  -9.887 +0.07 +0.01    +0.222 HD
DOCKED: ENDBRANCH  29  33
DOCKED: ENDBRANCH  28  29
DOCKED: ENDBRANCH   3  28
DOCKED: BRANCH   5  35
DOCKED: ATOM     35  O   UNL d   1     -14.908  -3.053  -4.556 -0.19 -0.03    -0.278 OA
DOCKED: BRANCH  35  36
DOCKED: ATOM     36  P   UNL d   1     -14.516  -1.635  -3.938 -0.16 +0.05    +0.473 P 
DOCKED: ATOM     37  O   UNL d   1     -13.252  -1.608  -3.138 -0.37 -0.02    -0.228 OA
DOCKED: BRANCH  36  38
DOCKED: ATOM     38  O   UNL d   1     -14.490  -0.711  -5.235 -0.05 -0.02    -0.303 OA
DOCKED: ATOM     39  H   UNL d   1     -15.085  -1.094  -5.914 +0.05 +0.02    +0.222 HD
DOCKED: ENDBRANCH  36  38
DOCKED: BRANCH  36  40
DOCKED: ATOM     40  O   UNL d   1     -15.853  -1.209  -3.191 -0.09 -0.05    -0.303 OA
DOCKED: ATOM     41  H   UNL d   1     -16.647  -1.360  -3.750 +0.04 +0.03    +0.222 HD
DOCKED: ENDBRANCH  36  40
DOCKED: ENDBRANCH  35  36
DOCKED: ENDBRANCH   5  35
DOCKED: BRANCH   4  42
DOCKED: ATOM     42  O   UNL d   1     -12.805  -3.196  -6.568 -0.23 -0.04    -0.278 OA
DOCKED: BRANCH  42  43
DOCKED: ATOM     43  P   UNL d   1     -12.728  -2.172  -7.788 -0.08 +0.05    +0.473 P 
DOCKED: ATOM     44  O   UNL d   1     -13.602  -2.438  -8.964 -0.03 -0.01    -0.228 OA
DOCKED: BRANCH  43  45
DOCKED: ATOM     45  O   UNL d   1     -12.992  -0.770  -7.085 -0.07 -0.02    -0.303 OA
DOCKED: ATOM     46  H   UNL d   1     -13.942  -0.537  -7.096 +0.04 +0.01    +0.222 HD
DOCKED: ENDBRANCH  43  45
DOCKED: BRANCH  43  47
DOCKED: ATOM     47  O   UNL d   1     -11.157  -2.090  -8.099 -0.15 -0.05    -0.303 OA
DOCKED: ATOM     48  H   UNL d   1     -10.884  -2.889  -8.595 +0.07 +0.04    +0.222 HD
DOCKED: ENDBRANCH  43  47
DOCKED: ENDBRANCH  42  43
DOCKED: ENDBRANCH   4  42
DOCKED: TORSDOF 24
DOCKED: TER
DOCKED: ENDMDL
________________________________________________________________________________


	BEGINNING GENETIC ALGORITHM DOCKING 19 of 100
Run: 19 Seed: 2000338436 428922154 [ Run 19 of 100 GA/GALS ]
Beginning LAMARCKIAN GENETIC ALGORITHM (LGA), with a maximum of 25000000 energy evaluations.

Final-Value: -18.408


	FINAL GENETIC ALGORITHM DOCKED STATE
	_______________________________________________


Detailed state:  trans -10.488 11.044 -0.260 quatxyzw 0.134948 0.613640 0.290367 0.721749 center 0.035 0.082 -0.065 ntor 24 -141.4174 -12.0318 134.3127 18.4808 21.0893 179.9959 -30.4232 -140.0461 153.3041 -30.5018 25.4725 -176.5179 63.4448 34.3046 176.0984 -48.8705 38.8789 146.4746 -12.7596 -25.6703 -17.0795 9.3750 -23.4307 -7.2682
State:	-10.488  11.044  -0.260   0.195  0.887  0.420 87.602   -141.42  -12.03  134.31   18.48   21.09  180.00  -30.42 -140.05  153.30  -30.50   25.47 -176.52   63.44   34.30  176.10  -48.87   38.88  146.47  -12.76  -25.67  -17.08    9.37  -23.43   -7.27

DOCKED: MODEL       19
DOCKED: USER    Run = 19
DOCKED: USER    DPF = D:/Protein_go_brrr/autodock/final/mut_Y35F/IHP/dock.dpf
DOCKED: USER  
DOCKED: USER    Estimated Free Energy of Binding    =   +3.21 kcal/mol  [=(1)+(2)+(3)-(4)]
DOCKED: USER    
DOCKED: USER    (1) Final Intermolecular Energy     =   -3.95 kcal/mol
DOCKED: USER        vdW + Hbond + desolv Energy     =   -3.76 kcal/mol
DOCKED: USER        Electrostatic Energy            =   -0.19 kcal/mol
DOCKED: USER    (2) Final Total Internal Energy     =  -14.46 kcal/mol
DOCKED: USER    (3) Torsional Free Energy           =   +7.16 kcal/mol
DOCKED: USER    (4) Unbound System's Energy  [=(2)] =  -14.46 kcal/mol
DOCKED: USER    
DOCKED: USER    
DOCKED: USER    NEWDPF move IHP_ideal_opt.pdbqt
DOCKED: USER    NEWDPF about 0.035000 0.082000 -0.065000
DOCKED: USER    NEWDPF tran0 -10.487609 11.043831 -0.260291
DOCKED: USER    NEWDPF quaternion0 0.134948 0.613640 0.290367 0.721749
DOCKED: USER    NEWDPF axisangle0 0.194968 0.886565 0.419511 87.601852
DOCKED: USER    NEWDPF quat0 0.194968 0.886565 0.419511 87.601852
DOCKED: USER    NEWDPF dihe0 -141.42 -12.03 134.31 18.48 21.09 180.00 -30.42 -140.05 153.30 -30.50 25.47 -176.52 63.44 34.30 176.10 -48.87 38.88 146.47 -12.76 -25.67 -17.08 9.37 -23.43 -7.27 
DOCKED: USER  keepresnum = 1 
DOCKED: USER  
DOCKED: REMARK  24 active torsions:
DOCKED: REMARK  status: ('A' for Active; 'I' for Inactive)
DOCKED: REMARK    1  A    between atoms: C_1  and  O_7 
DOCKED: REMARK    2  A    between atoms: C_2  and  O_12 
DOCKED: REMARK    3  A    between atoms: C_3  and  O_17 
DOCKED: REMARK    4  A    between atoms: C_4  and  O_22 
DOCKED: REMARK    5  A    between atoms: C_5  and  O_27 
DOCKED: REMARK    6  A    between atoms: C_6  and  O_32 
DOCKED: REMARK    7  A    between atoms: O_7  and  P_8 
DOCKED: REMARK    8  A    between atoms: P_8  and  O_10 
DOCKED: REMARK    9  A    between atoms: P_8  and  O_11 
DOCKED: REMARK   10  A    between atoms: O_12  and  P_13 
DOCKED: REMARK   11  A    between atoms: P_13  and  O_15 
DOCKED: REMARK   12  A    between atoms: P_13  and  O_16 
DOCKED: REMARK   13  A    between atoms: O_17  and  P_18 
DOCKED: REMARK   14  A    between atoms: P_18  and  O_20 
DOCKED: REMARK   15  A    between atoms: P_18  and  O_21 
DOCKED: REMARK   16  A    between atoms: O_22  and  P_23 
DOCKED: REMARK   17  A    between atoms: P_23  and  O_25 
DOCKED: REMARK   18  A    between atoms: P_23  and  O_26 
DOCKED: REMARK   19  A    between atoms: O_27  and  P_28 
DOCKED: REMARK   20  A    between atoms: P_28  and  O_30 
DOCKED: REMARK   21  A    between atoms: P_28  and  O_31 
DOCKED: REMARK   22  A    between atoms: O_32  and  P_33 
DOCKED: REMARK   23  A    between atoms: P_33  and  O_35 
DOCKED: REMARK   24  A    between atoms: P_33  and  O_36 
DOCKED: USER                              x       y       z     vdW  Elec       q    Type
DOCKED: USER                           _______ _______ _______ _____ _____    ______ ____
DOCKED: ROOT
DOCKED: ATOM      1  C   UNL d   1     -11.547  10.456   0.971 -0.07 -0.02    +0.194 C 
DOCKED: ATOM      2  C   UNL d   1     -11.817   9.930  -0.440 -0.04 -0.02    +0.194 C 
DOCKED: ATOM      3  C   UNL d   1     -11.723  11.042  -1.487 -0.00 -0.02    +0.194 C 
DOCKED: ATOM      4  C   UNL d   1     -10.421  11.835  -1.406 -0.01 -0.03    +0.194 C 
DOCKED: ATOM      5  C   UNL d   1     -10.053  12.282   0.003 -0.04 -0.03    +0.194 C 
DOCKED: ATOM      6  C   UNL d   1     -10.207  11.187   1.060 -0.09 -0.02    +0.194 C 
DOCKED: ENDROOT
DOCKED: BRANCH   1   7
DOCKED: ATOM      7  O   UNL d   1     -11.484   9.338   1.859 -0.03 +0.05    -0.278 OA
DOCKED: BRANCH   7   8
DOCKED: ATOM      8  P   UNL d   1     -12.252   9.434   3.257 +0.01 +0.02    +0.473 P 
DOCKED: ATOM      9  O   UNL d   1     -13.379   8.476   3.424 -0.10 -0.03    -0.228 OA
DOCKED: BRANCH   8  10
DOCKED: ATOM     10  O   UNL d   1     -11.100   9.245   4.345 -0.12 -0.05    -0.303 OA
DOCKED: ATOM     11  H   UNL d   1     -10.441   9.958   4.250 +0.08 +0.01    +0.222 HD
DOCKED: ENDBRANCH   8  10
DOCKED: BRANCH   8  12
DOCKED: ATOM     12  O   UNL d   1     -12.617  10.971   3.422 -0.04 -0.01    -0.303 OA
DOCKED: ATOM     13  H   UNL d   1     -11.830  11.560   3.388 +0.05 +0.00    +0.222 HD
DOCKED: ENDBRANCH   8  12
DOCKED: ENDBRANCH   7   8
DOCKED: ENDBRANCH   1   7
DOCKED: BRANCH   2  14
DOCKED: ATOM     14  O   UNL d   1     -10.849   8.922  -0.756 -0.07 +0.03    -0.278 OA
DOCKED: BRANCH  14  15
DOCKED: ATOM     15  P   UNL d   1     -11.365   7.406  -0.747 -0.07 -0.02    +0.473 P 
DOCKED: ATOM     16  O   UNL d   1     -11.903   6.872  -2.037 -0.05 -0.01    -0.228 OA
DOCKED: BRANCH  15  17
DOCKED: ATOM     17  O   UNL d   1     -10.117   6.575  -0.207 -0.18 +0.04    -0.303 OA
DOCKED: ATOM     18  H   UNL d   1      -9.651   7.060   0.500 -0.38 -0.13    +0.222 HD
DOCKED: ENDBRANCH  15  17
DOCKED: BRANCH  15  19
DOCKED: ATOM     19  O   UNL d   1     -12.358   7.332   0.493 -0.55 -0.03    -0.303 OA
DOCKED: ATOM     20  H   UNL d   1     -12.011   7.821   1.263 -0.22 -0.00    +0.222 HD
DOCKED: ENDBRANCH  15  19
DOCKED: ENDBRANCH  14  15
DOCKED: ENDBRANCH   2  14
DOCKED: BRANCH   6  21
DOCKED: ATOM     21  O   UNL d   1     -10.166  11.832   2.331 -0.36 +0.01    -0.278 OA
DOCKED: BRANCH  21  22
DOCKED: ATOM     22  P   UNL d   1      -9.023  11.450   3.376 -0.04 +0.01    +0.473 P 
DOCKED: ATOM     23  O   UNL d   1      -9.303  11.642   4.829 -0.32 -0.00    -0.228 OA
DOCKED: BRANCH  22  24
DOCKED: ATOM     24  O   UNL d   1      -8.682   9.954   2.954 -0.25 +0.04    -0.303 OA
DOCKED: ATOM     25  H   UNL d   1      -9.536   9.471   2.814 -0.26 -0.08    +0.222 HD
DOCKED: ENDBRANCH  22  24
DOCKED: BRANCH  22  26
DOCKED: ATOM     26  O   UNL d   1      -7.765  12.254   2.791 -0.47 +0.01    -0.303 OA
DOCKED: ATOM     27  H   UNL d   1      -8.060  12.811   2.042 +0.10 -0.01    +0.222 HD
DOCKED: ENDBRANCH  22  26
DOCKED: ENDBRANCH  21  22
DOCKED: ENDBRANCH   6  21
DOCKED: BRANCH   3  28
DOCKED: ATOM     28  O   UNL d   1     -11.709  10.424  -2.768 -0.00 +0.02    -0.278 OA
DOCKED: BRANCH  28  29
DOCKED: ATOM     29  P   UNL d   1     -12.847  10.754  -3.832 +0.01 -0.02    +0.473 P 
DOCKED: ATOM     30  O   UNL d   1     -14.170  10.132  -3.569 -0.00 +0.00    -0.228 OA
DOCKED: BRANCH  29  31
DOCKED: ATOM     31  O   UNL d   1     -12.782  12.353  -3.824 +0.00 +0.02    -0.303 OA
DOCKED: ATOM     32  H   UNL d   1     -11.902  12.630  -3.478 +0.01 -0.02    +0.222 HD
DOCKED: ENDBRANCH  29  31
DOCKED: BRANCH  29  33
DOCKED: ATOM     33  O   UNL d   1     -12.136  10.380  -5.207 +0.00 +0.01    -0.303 OA
DOCKED: ATOM     34  H   UNL d   1     -11.554  11.131  -5.482 +0.02 -0.02    +0.222 HD
DOCKED: ENDBRANCH  29  33
DOCKED: ENDBRANCH  28  29
DOCKED: ENDBRANCH   3  28
DOCKED: BRANCH   5  35
DOCKED: ATOM     35  O   UNL d   1      -8.670  12.625  -0.048 -0.05 +0.06    -0.278 OA
DOCKED: BRANCH  35  36
DOCKED: ATOM     36  P   UNL d   1      -8.217  14.153   0.008 -0.05 -0.10    +0.473 P 
DOCKED: ATOM     37  O   UNL d   1      -8.119  14.747   1.377 -0.15 +0.04    -0.228 OA
DOCKED: BRANCH  36  38
DOCKED: ATOM     38  O   UNL d   1      -6.838  14.114  -0.789 -0.12 +0.11    -0.303 OA
DOCKED: ATOM     39  H   UNL d   1      -7.022  14.160  -1.752 +0.07 -0.10    +0.222 HD
DOCKED: ENDBRANCH  36  38
DOCKED: BRANCH  36  40
DOCKED: ATOM     40  O   UNL d   1      -9.226  14.844  -1.009 -0.01 +0.06    -0.303 OA
DOCKED: ATOM     41  H   UNL d   1      -9.020  14.613  -1.941 +0.03 -0.05    +0.222 HD
DOCKED: ENDBRANCH  36  40
DOCKED: ENDBRANCH  35  36
DOCKED: ENDBRANCH   5  35
DOCKED: BRANCH   4  42
DOCKED: ATOM     42  O   UNL d   1     -10.608  13.020  -2.188 -0.00 +0.04    -0.278 OA
DOCKED: BRANCH  42  43
DOCKED: ATOM     43  P   UNL d   1      -9.670  13.263  -3.456 +0.01 -0.12    +0.473 P 
DOCKED: ATOM     44  O   UNL d   1      -9.695  14.615  -4.079 -0.00 +0.05    -0.228 OA
DOCKED: BRANCH  43  45
DOCKED: ATOM     45  O   UNL d   1      -8.238  12.819  -2.921 -0.06 +0.14    -0.303 OA
DOCKED: ATOM     46  H   UNL d   1      -8.045  13.213  -2.047 +0.06 -0.09    +0.222 HD
DOCKED: ENDBRANCH  43  45
DOCKED: BRANCH  43  47
DOCKED: ATOM     47  O   UNL d   1     -10.046  12.046  -4.428 -0.02 +0.07    -0.303 OA
DOCKED: ATOM     48  H   UNL d   1     -10.759  11.513  -4.018 +0.03 -0.03    +0.222 HD
DOCKED: ENDBRANCH  43  47
DOCKED: ENDBRANCH  42  43
DOCKED: ENDBRANCH   4  42
DOCKED: TORSDOF 24
DOCKED: TER
DOCKED: ENDMDL
________________________________________________________________________________


	BEGINNING GENETIC ALGORITHM DOCKING 20 of 100
Run: 20 Seed: 1179176884 427866816 [ Run 20 of 100 GA/GALS ]
Beginning LAMARCKIAN GENETIC ALGORITHM (LGA), with a maximum of 25000000 energy evaluations.

Final-Value: -17.508


	FINAL GENETIC ALGORITHM DOCKED STATE
	_______________________________________________


Detailed state:  trans 14.159 -10.928 -0.052 quatxyzw 0.649369 -0.251271 -0.677660 0.236558 center 0.035 0.082 -0.065 ntor 24 -122.3706 33.4504 -9.9805 48.1922 109.9155 -132.1446 1.0906 -86.1490 -15.0638 106.6066 33.4826 -162.6738 -141.9943 31.4388 98.3163 102.1521 -27.1441 157.7332 28.9759 -10.1779 -33.2625 -27.2950 147.3805 -5.0874
State:	 14.159 -10.928  -0.052   0.668 -0.259 -0.697 152.633   -122.37   33.45   -9.98   48.19  109.92 -132.14    1.09  -86.15  -15.06  106.61   33.48 -162.67 -141.99   31.44   98.32  102.15  -27.14  157.73   28.98  -10.18  -33.26  -27.29  147.38   -5.09

DOCKED: MODEL       20
DOCKED: USER    Run = 20
DOCKED: USER    DPF = D:/Protein_go_brrr/autodock/final/mut_Y35F/IHP/dock.dpf
DOCKED: USER  
DOCKED: USER    Estimated Free Energy of Binding    =   +3.22 kcal/mol  [=(1)+(2)+(3)-(4)]
DOCKED: USER    
DOCKED: USER    (1) Final Intermolecular Energy     =   -3.94 kcal/mol
DOCKED: USER        vdW + Hbond + desolv Energy     =   -3.83 kcal/mol
DOCKED: USER        Electrostatic Energy            =   -0.11 kcal/mol
DOCKED: USER    (2) Final Total Internal Energy     =  -13.57 kcal/mol
DOCKED: USER    (3) Torsional Free Energy           =   +7.16 kcal/mol
DOCKED: USER    (4) Unbound System's Energy  [=(2)] =  -13.57 kcal/mol
DOCKED: USER    
DOCKED: USER    
DOCKED: USER    NEWDPF move IHP_ideal_opt.pdbqt
DOCKED: USER    NEWDPF about 0.035000 0.082000 -0.065000
DOCKED: USER    NEWDPF tran0 14.158601 -10.928272 -0.051653
DOCKED: USER    NEWDPF quaternion0 0.649369 -0.251271 -0.677660 0.236558
DOCKED: USER    NEWDPF axisangle0 0.668338 -0.258611 -0.697456 152.633076
DOCKED: USER    NEWDPF quat0 0.668338 -0.258611 -0.697456 152.633076
DOCKED: USER    NEWDPF dihe0 -122.37 33.45 -9.98 48.19 109.92 -132.14 1.09 -86.15 -15.06 106.61 33.48 -162.67 -141.99 31.44 98.32 102.15 -27.14 157.73 28.98 -10.18 -33.26 -27.29 147.38 -5.09 
DOCKED: USER  keepresnum = 1 
DOCKED: USER  
DOCKED: REMARK  24 active torsions:
DOCKED: REMARK  status: ('A' for Active; 'I' for Inactive)
DOCKED: REMARK    1  A    between atoms: C_1  and  O_7 
DOCKED: REMARK    2  A    between atoms: C_2  and  O_12 
DOCKED: REMARK    3  A    between atoms: C_3  and  O_17 
DOCKED: REMARK    4  A    between atoms: C_4  and  O_22 
DOCKED: REMARK    5  A    between atoms: C_5  and  O_27 
DOCKED: REMARK    6  A    between atoms: C_6  and  O_32 
DOCKED: REMARK    7  A    between atoms: O_7  and  P_8 
DOCKED: REMARK    8  A    between atoms: P_8  and  O_10 
DOCKED: REMARK    9  A    between atoms: P_8  and  O_11 
DOCKED: REMARK   10  A    between atoms: O_12  and  P_13 
DOCKED: REMARK   11  A    between atoms: P_13  and  O_15 
DOCKED: REMARK   12  A    between atoms: P_13  and  O_16 
DOCKED: REMARK   13  A    between atoms: O_17  and  P_18 
DOCKED: REMARK   14  A    between atoms: P_18  and  O_20 
DOCKED: REMARK   15  A    between atoms: P_18  and  O_21 
DOCKED: REMARK   16  A    between atoms: O_22  and  P_23 
DOCKED: REMARK   17  A    between atoms: P_23  and  O_25 
DOCKED: REMARK   18  A    between atoms: P_23  and  O_26 
DOCKED: REMARK   19  A    between atoms: O_27  and  P_28 
DOCKED: REMARK   20  A    between atoms: P_28  and  O_30 
DOCKED: REMARK   21  A    between atoms: P_28  and  O_31 
DOCKED: REMARK   22  A    between atoms: O_32  and  P_33 
DOCKED: REMARK   23  A    between atoms: P_33  and  O_35 
DOCKED: REMARK   24  A    between atoms: P_33  and  O_36 
DOCKED: USER                              x       y       z     vdW  Elec       q    Type
DOCKED: USER                           _______ _______ _______ _____ _____    ______ ____
DOCKED: ROOT
DOCKED: ATOM      1  C   UNL d   1      14.075  -9.747  -1.309 -0.14 -0.01    +0.194 C 
DOCKED: ATOM      2  C   UNL d   1      14.932  -9.366  -0.100 -0.09 -0.01    +0.194 C 
DOCKED: ATOM      3  C   UNL d   1      14.251  -9.741   1.218 -0.07 -0.05    +0.194 C 
DOCKED: ATOM      4  C   UNL d   1      13.797 -11.197   1.267 -0.13 -0.06    +0.194 C 
DOCKED: ATOM      5  C   UNL d   1      13.036 -11.653   0.029 -0.20 -0.04    +0.194 C 
DOCKED: ATOM      6  C   UNL d   1      13.686 -11.225  -1.289 -0.15 -0.04    +0.194 C 
DOCKED: ENDROOT
DOCKED: BRANCH   1   7
DOCKED: ATOM      7  O   UNL d   1      14.848  -9.525  -2.491 -0.05 -0.02    -0.278 OA
DOCKED: BRANCH   7   8
DOCKED: ATOM      8  P   UNL d   1      14.707  -8.120  -3.238 -0.08 +0.20    +0.473 P 
DOCKED: ATOM      9  O   UNL d   1      13.654  -8.067  -4.289 -0.16 -0.05    -0.228 OA
DOCKED: BRANCH   8  10
DOCKED: ATOM     10  O   UNL d   1      14.468  -7.076  -2.056 -0.15 -0.11    -0.303 OA
DOCKED: ATOM     11  H   UNL d   1      15.321  -6.857  -1.637 +0.08 +0.10    +0.222 HD
DOCKED: ENDBRANCH   8  10
DOCKED: BRANCH   8  12
DOCKED: ATOM     12  O   UNL d   1      16.179  -7.756  -3.712 -0.56 -0.40    -0.303 OA
DOCKED: ATOM     13  H   UNL d   1      16.867  -8.331  -3.310 +0.03 +0.17    +0.222 HD
DOCKED: ENDBRANCH   8  12
DOCKED: ENDBRANCH   7   8
DOCKED: ENDBRANCH   1   7
DOCKED: BRANCH   2  14
DOCKED: ATOM     14  O   UNL d   1      16.184 -10.058  -0.179 -0.01 +0.00    -0.278 OA
DOCKED: BRANCH  14  15
DOCKED: ATOM     15  P   UNL d   1      17.503  -9.149  -0.212 +0.01 +0.04    +0.473 P 
DOCKED: ATOM     16  O   UNL d   1      18.077  -8.751   1.112 -0.01 -0.01    -0.228 OA
DOCKED: BRANCH  15  17
DOCKED: ATOM     17  O   UNL d   1      18.526  -9.984  -1.103 +0.00 -0.03    -0.303 OA
DOCKED: ATOM     18  H   UNL d   1      19.219 -10.395  -0.551 +0.00 +0.01    +0.222 HD
DOCKED: ENDBRANCH  15  17
DOCKED: BRANCH  15  19
DOCKED: ATOM     19  O   UNL d   1      17.134  -7.949  -1.189 -0.05 -0.09    -0.303 OA
DOCKED: ATOM     20  H   UNL d   1      16.305  -8.120  -1.673 +0.05 +0.08    +0.222 HD
DOCKED: ENDBRANCH  15  19
DOCKED: ENDBRANCH  14  15
DOCKED: ENDBRANCH   2  14
DOCKED: BRANCH   6  21
DOCKED: ATOM     21  O   UNL d   1      12.709 -11.414  -2.310 -0.21 +0.12    -0.278 OA
DOCKED: BRANCH  21  22
DOCKED: ATOM     22  P   UNL d   1      13.128 -12.095  -3.691 -0.09 -0.27    +0.473 P 
DOCKED: ATOM     23  O   UNL d   1      12.319 -13.247  -4.183 -0.13 +0.24    -0.228 OA
DOCKED: BRANCH  22  24
DOCKED: ATOM     24  O   UNL d   1      13.171 -10.842  -4.672 -0.11 +0.14    -0.303 OA
DOCKED: ATOM     25  H   UNL d   1      13.630 -10.099  -4.203 +0.06 -0.04    +0.222 HD
DOCKED: ENDBRANCH  22  24
DOCKED: BRANCH  22  26
DOCKED: ATOM     26  O   UNL d   1      14.687 -12.382  -3.452 -0.02 +0.06    -0.303 OA
DOCKED: ATOM     27  H   UNL d   1      14.797 -12.893  -2.624 +0.03 -0.04    +0.222 HD
DOCKED: ENDBRANCH  22  26
DOCKED: ENDBRANCH  21  22
DOCKED: ENDBRANCH   6  21
DOCKED: BRANCH   3  28
DOCKED: ATOM     28  O   UNL d   1      15.218  -9.611   2.252 -0.09 +0.08    -0.278 OA
DOCKED: BRANCH  28  29
DOCKED: ATOM     29  P   UNL d   1      15.507  -8.190   2.910 -0.08 -0.05    +0.473 P 
DOCKED: ATOM     30  O   UNL d   1      14.482  -7.709   3.873 -0.19 +0.01    -0.228 OA
DOCKED: BRANCH  29  31
DOCKED: ATOM     31  O   UNL d   1      16.980  -8.441   3.481 -0.02 -0.01    -0.303 OA
DOCKED: ATOM     32  H   UNL d   1      17.547  -8.780   2.751 +0.02 +0.01    +0.222 HD
DOCKED: ENDBRANCH  29  31
DOCKED: BRANCH  29  33
DOCKED: ATOM     33  O   UNL d   1      15.776  -7.279   1.632 -0.06 -0.01    -0.303 OA
DOCKED: ATOM     34  H   UNL d   1      16.120  -7.846   0.900 +0.07 +0.01    +0.222 HD
DOCKED: ENDBRANCH  29  33
DOCKED: ENDBRANCH  28  29
DOCKED: ENDBRANCH   3  28
DOCKED: BRANCH   5  35
DOCKED: ATOM     35  O   UNL d   1      13.058 -13.079   0.064 -0.60 +0.04    -0.278 OA
DOCKED: BRANCH  35  36
DOCKED: ATOM     36  P   UNL d   1      14.333 -13.877  -0.467 -0.01 -0.07    +0.473 P 
DOCKED: ATOM     37  O   UNL d   1      15.587 -13.073  -0.603 -0.01 +0.02    -0.228 OA
DOCKED: BRANCH  36  38
DOCKED: ATOM     38  O   UNL d   1      14.431 -15.070   0.583 -0.00 +0.04    -0.303 OA
DOCKED: ATOM     39  H   UNL d   1      14.935 -14.766   1.368 +0.01 -0.02    +0.222 HD
DOCKED: ENDBRANCH  36  38
DOCKED: BRANCH  36  40
DOCKED: ATOM     40  O   UNL d   1      13.774 -14.572  -1.784 -0.02 +0.07    -0.303 OA
DOCKED: ATOM     41  H   UNL d   1      13.528 -13.910  -2.469 +0.04 -0.08    +0.222 HD
DOCKED: ENDBRANCH  36  40
DOCKED: ENDBRANCH  35  36
DOCKED: ENDBRANCH   5  35
DOCKED: BRANCH   4  42
DOCKED: ATOM     42  O   UNL d   1      12.902 -11.315   2.378 -0.08 +0.18    -0.278 OA
DOCKED: BRANCH  42  43
DOCKED: ATOM     43  P   UNL d   1      13.310 -12.253   3.602 -0.01 -0.24    +0.473 P 
DOCKED: ATOM     44  O   UNL d   1      12.212 -12.785   4.456 -0.11 +0.09    -0.228 OA
DOCKED: BRANCH  43  45
DOCKED: ATOM     45  O   UNL d   1      14.193 -13.377   2.901 -0.02 +0.06    -0.303 OA
DOCKED: ATOM     46  H   UNL d   1      13.818 -13.638   2.036 +0.04 -0.04    +0.222 HD
DOCKED: ENDBRANCH  43  45
DOCKED: BRANCH  43  47
DOCKED: ATOM     47  O   UNL d   1      14.426 -11.392   4.366 -0.06 +0.15    -0.303 OA
DOCKED: ATOM     48  H   UNL d   1      14.377 -10.461   4.066 -0.52 -0.23    +0.222 HD
DOCKED: ENDBRANCH  43  47
DOCKED: ENDBRANCH  42  43
DOCKED: ENDBRANCH   4  42
DOCKED: TORSDOF 24
DOCKED: TER
DOCKED: ENDMDL
________________________________________________________________________________


	BEGINNING GENETIC ALGORITHM DOCKING 21 of 100
Run: 21 Seed: 1713059080 1826823314 [ Run 21 of 100 GA/GALS ]
Beginning LAMARCKIAN GENETIC ALGORITHM (LGA), with a maximum of 25000000 energy evaluations.

Final-Value: -16.879


	FINAL GENETIC ALGORITHM DOCKED STATE
	_______________________________________________


Detailed state:  trans -13.986 8.413 4.910 quatxyzw 0.167601 0.105341 -0.978481 0.058202 center 0.035 0.082 -0.065 ntor 24 121.4317 125.7242 176.9914 -29.9583 -22.2312 -70.5549 -94.3880 -157.5417 84.7446 -22.7287 117.3876 149.9894 -72.8083 175.7210 -28.1528 -29.7428 -138.2465 27.3201 -151.1191 19.0099 12.2753 9.8637 -15.4974 -180.0000
State:	-13.986   8.413   4.910   0.168  0.106 -0.980 173.327    121.43  125.72  176.99  -29.96  -22.23  -70.55  -94.39 -157.54   84.74  -22.73  117.39  149.99  -72.81  175.72  -28.15  -29.74 -138.25   27.32 -151.12   19.01   12.28    9.86  -15.50 -180.00

DOCKED: MODEL       21
DOCKED: USER    Run = 21
DOCKED: USER    DPF = D:/Protein_go_brrr/autodock/final/mut_Y35F/IHP/dock.dpf
DOCKED: USER  
DOCKED: USER    Estimated Free Energy of Binding    =   +3.31 kcal/mol  [=(1)+(2)+(3)-(4)]
DOCKED: USER    
DOCKED: USER    (1) Final Intermolecular Energy     =   -3.84 kcal/mol
DOCKED: USER        vdW + Hbond + desolv Energy     =   -3.61 kcal/mol
DOCKED: USER        Electrostatic Energy            =   -0.23 kcal/mol
DOCKED: USER    (2) Final Total Internal Energy     =  -13.03 kcal/mol
DOCKED: USER    (3) Torsional Free Energy           =   +7.16 kcal/mol
DOCKED: USER    (4) Unbound System's Energy  [=(2)] =  -13.03 kcal/mol
DOCKED: USER    
DOCKED: USER    
DOCKED: USER    NEWDPF move IHP_ideal_opt.pdbqt
DOCKED: USER    NEWDPF about 0.035000 0.082000 -0.065000
DOCKED: USER    NEWDPF tran0 -13.986344 8.413484 4.909774
DOCKED: USER    NEWDPF quaternion0 0.167601 0.105341 -0.978481 0.058202
DOCKED: USER    NEWDPF axisangle0 0.167886 0.105520 -0.980143 173.326778
DOCKED: USER    NEWDPF quat0 0.167886 0.105520 -0.980143 173.326778
DOCKED: USER    NEWDPF dihe0 121.43 125.72 176.99 -29.96 -22.23 -70.55 -94.39 -157.54 84.74 -22.73 117.39 149.99 -72.81 175.72 -28.15 -29.74 -138.25 27.32 -151.12 19.01 12.28 9.86 -15.50 -180.00 
DOCKED: USER  keepresnum = 1 
DOCKED: USER  
DOCKED: REMARK  24 active torsions:
DOCKED: REMARK  status: ('A' for Active; 'I' for Inactive)
DOCKED: REMARK    1  A    between atoms: C_1  and  O_7 
DOCKED: REMARK    2  A    between atoms: C_2  and  O_12 
DOCKED: REMARK    3  A    between atoms: C_3  and  O_17 
DOCKED: REMARK    4  A    between atoms: C_4  and  O_22 
DOCKED: REMARK    5  A    between atoms: C_5  and  O_27 
DOCKED: REMARK    6  A    between atoms: C_6  and  O_32 
DOCKED: REMARK    7  A    between atoms: O_7  and  P_8 
DOCKED: REMARK    8  A    between atoms: P_8  and  O_10 
DOCKED: REMARK    9  A    between atoms: P_8  and  O_11 
DOCKED: REMARK   10  A    between atoms: O_12  and  P_13 
DOCKED: REMARK   11  A    between atoms: P_13  and  O_15 
DOCKED: REMARK   12  A    between atoms: P_13  and  O_16 
DOCKED: REMARK   13  A    between atoms: O_17  and  P_18 
DOCKED: REMARK   14  A    between atoms: P_18  and  O_20 
DOCKED: REMARK   15  A    between atoms: P_18  and  O_21 
DOCKED: REMARK   16  A    between atoms: O_22  and  P_23 
DOCKED: REMARK   17  A    between atoms: P_23  and  O_25 
DOCKED: REMARK   18  A    between atoms: P_23  and  O_26 
DOCKED: REMARK   19  A    between atoms: O_27  and  P_28 
DOCKED: REMARK   20  A    between atoms: P_28  and  O_30 
DOCKED: REMARK   21  A    between atoms: P_28  and  O_31 
DOCKED: REMARK   22  A    between atoms: O_32  and  P_33 
DOCKED: REMARK   23  A    between atoms: P_33  and  O_35 
DOCKED: REMARK   24  A    between atoms: P_33  and  O_36 
DOCKED: USER                              x       y       z     vdW  Elec       q    Type
DOCKED: USER                           _______ _______ _______ _____ _____    ______ ____
DOCKED: ROOT
DOCKED: ATOM      1  C   UNL d   1     -15.360   9.315   5.444 +0.00 +0.05    +0.194 C 
DOCKED: ATOM      2  C   UNL d   1     -14.002   9.978   5.679 -0.02 +0.06    +0.194 C 
DOCKED: ATOM      3  C   UNL d   1     -12.967   8.980   6.202 -0.10 +0.10    +0.194 C 
DOCKED: ATOM      4  C   UNL d   1     -12.854   7.724   5.341 -0.10 +0.09    +0.194 C 
DOCKED: ATOM      5  C   UNL d   1     -14.194   7.093   4.986 -0.07 +0.08    +0.194 C 
DOCKED: ATOM      6  C   UNL d   1     -15.249   8.100   4.521 -0.01 +0.05    +0.194 C 
DOCKED: ENDROOT
DOCKED: BRANCH   1   7
DOCKED: ATOM      7  O   UNL d   1     -16.213  10.263   4.799 +0.00 -0.04    -0.278 OA
DOCKED: BRANCH   7   8
DOCKED: ATOM      8  P   UNL d   1     -16.161  10.371   3.206 +0.01 +0.03    +0.473 P 
DOCKED: ATOM      9  O   UNL d   1     -14.916   9.850   2.578 -0.01 -0.01    -0.228 OA
DOCKED: BRANCH   8  10
DOCKED: ATOM     10  O   UNL d   1     -17.475   9.607   2.722 +0.00 -0.02    -0.303 OA
DOCKED: ATOM     11  H   UNL d   1     -17.641   8.842   3.305 +0.00 +0.02    +0.222 HD
DOCKED: ENDBRANCH   8  10
DOCKED: BRANCH   8  12
DOCKED: ATOM     12  O   UNL d   1     -16.519  11.885   2.882 +0.00 -0.01    -0.303 OA
DOCKED: ATOM     13  H   UNL d   1     -15.755  12.494   2.993 +0.01 +0.00    +0.222 HD
DOCKED: ENDBRANCH   8  12
DOCKED: ENDBRANCH   7   8
DOCKED: ENDBRANCH   1   7
DOCKED: BRANCH   2  14
DOCKED: ATOM     14  O   UNL d   1     -13.527  10.522   4.441 -0.02 -0.04    -0.278 OA
DOCKED: BRANCH  14  15
DOCKED: ATOM     15  P   UNL d   1     -12.582  11.812   4.541 -0.04 +0.02    +0.473 P 
DOCKED: ATOM     16  O   UNL d   1     -12.961  12.989   3.698 -0.07 +0.01    -0.228 OA
DOCKED: BRANCH  15  17
DOCKED: ATOM     17  O   UNL d   1     -12.553  12.151   6.097 -0.07 -0.03    -0.303 OA
DOCKED: ATOM     18  H   UNL d   1     -11.913  11.584   6.569 +0.09 +0.05    +0.222 HD
DOCKED: ENDBRANCH  15  17
DOCKED: BRANCH  15  19
DOCKED: ATOM     19  O   UNL d   1     -11.114  11.246   4.310 -0.14 -0.01    -0.303 OA
DOCKED: ATOM     20  H   UNL d   1     -10.694  10.979   5.149 +0.10 +0.02    +0.222 HD
DOCKED: ENDBRANCH  15  19
DOCKED: ENDBRANCH  14  15
DOCKED: ENDBRANCH   2  14
DOCKED: BRANCH   6  21
DOCKED: ATOM     21  O   UNL d   1     -16.506   7.429   4.561 +0.00 -0.06    -0.278 OA
DOCKED: BRANCH  21  22
DOCKED: ATOM     22  P   UNL d   1     -17.025   6.642   3.274 +0.01 +0.07    +0.473 P 
DOCKED: ATOM     23  O   UNL d   1     -16.143   6.599   2.072 -0.01 -0.03    -0.228 OA
DOCKED: BRANCH  22  24
DOCKED: ATOM     24  O   UNL d   1     -17.388   5.219   3.887 +0.00 -0.05    -0.303 OA
DOCKED: ATOM     25  H   UNL d   1     -16.574   4.654   3.858 +0.04 +0.05    +0.222 HD
DOCKED: ENDBRANCH  22  24
DOCKED: BRANCH  22  26
DOCKED: ATOM     26  O   UNL d   1     -18.475   7.290   3.059 +0.00 -0.03    -0.303 OA
DOCKED: ATOM     27  H   UNL d   1     -18.489   7.774   2.208 +0.00 +0.01    +0.222 HD
DOCKED: ENDBRANCH  22  26
DOCKED: ENDBRANCH  21  22
DOCKED: ENDBRANCH   6  21
DOCKED: BRANCH   3  28
DOCKED: ATOM     28  O   UNL d   1     -11.692   9.605   6.125 -0.14 -0.11    -0.278 OA
DOCKED: BRANCH  28  29
DOCKED: ATOM     29  P   UNL d   1     -10.816   9.811   7.440 -0.22 +0.27    +0.473 P 
DOCKED: ATOM     30  O   UNL d   1     -11.480  10.553   8.542 -0.25 -0.22    -0.228 OA
DOCKED: BRANCH  29  31
DOCKED: ATOM     31  O   UNL d   1     -10.396   8.295   7.735 -0.30 -0.23    -0.303 OA
DOCKED: ATOM     32  H   UNL d   1     -11.182   7.719   7.597 +0.11 +0.22    +0.222 HD
DOCKED: ENDBRANCH  29  31
DOCKED: BRANCH  29  33
DOCKED: ATOM     33  O   UNL d   1      -9.476  10.440   6.854 -0.34 -0.03    -0.303 OA
DOCKED: ATOM     34  H   UNL d   1      -8.800   9.725   6.759 -0.40 -0.07    +0.222 HD
DOCKED: ENDBRANCH  29  33
DOCKED: ENDBRANCH  28  29
DOCKED: ENDBRANCH   3  28
DOCKED: BRANCH   5  35
DOCKED: ATOM     35  O   UNL d   1     -13.933   6.223   3.887 -0.05 -0.10    -0.278 OA
DOCKED: BRANCH  35  36
DOCKED: ATOM     36  P   UNL d   1     -14.121   4.647   4.047 -0.05 +0.20    +0.473 P 
DOCKED: ATOM     37  O   UNL d   1     -12.889   3.885   4.420 -0.71 -0.14    -0.228 OA
DOCKED: BRANCH  36  38
DOCKED: ATOM     38  O   UNL d   1     -15.291   4.566   5.124 -0.06 -0.14    -0.303 OA
DOCKED: ATOM     39  H   UNL d   1     -15.716   5.447   5.203 +0.04 +0.09    +0.222 HD
DOCKED: ENDBRANCH  36  38
DOCKED: BRANCH  36  40
DOCKED: ATOM     40  O   UNL d   1     -14.830   4.249   2.680 -0.04 -0.07    -0.303 OA
DOCKED: ATOM     41  H   UNL d   1     -15.720   4.658   2.599 +0.04 +0.04    +0.222 HD
DOCKED: ENDBRANCH  36  40
DOCKED: ENDBRANCH  35  36
DOCKED: ENDBRANCH   5  35
DOCKED: BRANCH   4  42
DOCKED: ATOM     42  O   UNL d   1     -12.125   6.760   6.108 -0.15 -0.21    -0.278 OA
DOCKED: BRANCH  42  43
DOCKED: ATOM     43  P   UNL d   1     -12.811   6.126   7.402 -0.13 +0.60    +0.473 P 
DOCKED: ATOM     44  O   UNL d   1     -13.902   5.136   7.185 -0.47 -0.36    -0.228 OA
DOCKED: BRANCH  43  45
DOCKED: ATOM     45  O   UNL d   1     -11.566   5.555   8.212 -0.23 -0.48    -0.303 OA
DOCKED: ATOM     46  H   UNL d   1     -10.827   6.195   8.231 +0.14 +0.27    +0.222 HD
DOCKED: ENDBRANCH  43  45
DOCKED: BRANCH  43  47
DOCKED: ATOM     47  O   UNL d   1     -13.205   7.411   8.274 -0.08 -0.47    -0.303 OA
DOCKED: ATOM     48  H   UNL d   1     -12.556   8.126   8.108 +0.07 +0.35    +0.222 HD
DOCKED: ENDBRANCH  43  47
DOCKED: ENDBRANCH  42  43
DOCKED: ENDBRANCH   4  42
DOCKED: TORSDOF 24
DOCKED: TER
DOCKED: ENDMDL
________________________________________________________________________________


	BEGINNING GENETIC ALGORITHM DOCKING 22 of 100
Run: 22 Seed: 1934527715 547268744 [ Run 22 of 100 GA/GALS ]
Beginning LAMARCKIAN GENETIC ALGORITHM (LGA), with a maximum of 25000000 energy evaluations.

Final-Value: -16.297


	FINAL GENETIC ALGORITHM DOCKED STATE
	_______________________________________________


Detailed state:  trans 14.769 1.691 -18.915 quatxyzw 0.064199 0.176077 0.394653 0.899513 center 0.035 0.082 -0.065 ntor 24 95.0282 118.4582 -176.4752 153.1922 -27.4827 -139.5484 -70.0011 -24.9748 128.2805 5.4086 107.8914 66.5687 -82.9549 54.8488 -61.7676 -9.2803 27.0222 -134.7654 63.9354 28.0801 29.0582 -1.3007 179.6931 0.0547
State:	 14.769   1.691 -18.915   0.147  0.403  0.903 51.812     95.03  118.46 -176.48  153.19  -27.48 -139.55  -70.00  -24.97  128.28    5.41  107.89   66.57  -82.95   54.85  -61.77   -9.28   27.02 -134.77   63.94   28.08   29.06   -1.30  179.69    0.05

DOCKED: MODEL       22
DOCKED: USER    Run = 22
DOCKED: USER    DPF = D:/Protein_go_brrr/autodock/final/mut_Y35F/IHP/dock.dpf
DOCKED: USER  
DOCKED: USER    Estimated Free Energy of Binding    =   +3.43 kcal/mol  [=(1)+(2)+(3)-(4)]
DOCKED: USER    
DOCKED: USER    (1) Final Intermolecular Energy     =   -3.73 kcal/mol
DOCKED: USER        vdW + Hbond + desolv Energy     =   -3.23 kcal/mol
DOCKED: USER        Electrostatic Energy            =   -0.51 kcal/mol
DOCKED: USER    (2) Final Total Internal Energy     =  -12.56 kcal/mol
DOCKED: USER    (3) Torsional Free Energy           =   +7.16 kcal/mol
DOCKED: USER    (4) Unbound System's Energy  [=(2)] =  -12.56 kcal/mol
DOCKED: USER    
DOCKED: USER    
DOCKED: USER    NEWDPF move IHP_ideal_opt.pdbqt
DOCKED: USER    NEWDPF about 0.035000 0.082000 -0.065000
DOCKED: USER    NEWDPF tran0 14.769414 1.691392 -18.915111
DOCKED: USER    NEWDPF quaternion0 0.064199 0.176077 0.394653 0.899513
DOCKED: USER    NEWDPF axisangle0 0.146944 0.403020 0.903317 51.811667
DOCKED: USER    NEWDPF quat0 0.146944 0.403020 0.903317 51.811667
DOCKED: USER    NEWDPF dihe0 95.03 118.46 -176.48 153.19 -27.48 -139.55 -70.00 -24.97 128.28 5.41 107.89 66.57 -82.95 54.85 -61.77 -9.28 27.02 -134.77 63.94 28.08 29.06 -1.30 179.69 0.05 
DOCKED: USER  keepresnum = 1 
DOCKED: USER  
DOCKED: REMARK  24 active torsions:
DOCKED: REMARK  status: ('A' for Active; 'I' for Inactive)
DOCKED: REMARK    1  A    between atoms: C_1  and  O_7 
DOCKED: REMARK    2  A    between atoms: C_2  and  O_12 
DOCKED: REMARK    3  A    between atoms: C_3  and  O_17 
DOCKED: REMARK    4  A    between atoms: C_4  and  O_22 
DOCKED: REMARK    5  A    between atoms: C_5  and  O_27 
DOCKED: REMARK    6  A    between atoms: C_6  and  O_32 
DOCKED: REMARK    7  A    between atoms: O_7  and  P_8 
DOCKED: REMARK    8  A    between atoms: P_8  and  O_10 
DOCKED: REMARK    9  A    between atoms: P_8  and  O_11 
DOCKED: REMARK   10  A    between atoms: O_12  and  P_13 
DOCKED: REMARK   11  A    between atoms: P_13  and  O_15 
DOCKED: REMARK   12  A    between atoms: P_13  and  O_16 
DOCKED: REMARK   13  A    between atoms: O_17  and  P_18 
DOCKED: REMARK   14  A    between atoms: P_18  and  O_20 
DOCKED: REMARK   15  A    between atoms: P_18  and  O_21 
DOCKED: REMARK   16  A    between atoms: O_22  and  P_23 
DOCKED: REMARK   17  A    between atoms: P_23  and  O_25 
DOCKED: REMARK   18  A    between atoms: P_23  and  O_26 
DOCKED: REMARK   19  A    between atoms: O_27  and  P_28 
DOCKED: REMARK   20  A    between atoms: P_28  and  O_30 
DOCKED: REMARK   21  A    between atoms: P_28  and  O_31 
DOCKED: REMARK   22  A    between atoms: O_32  and  P_33 
DOCKED: REMARK   23  A    between atoms: P_33  and  O_35 
DOCKED: REMARK   24  A    between atoms: P_33  and  O_36 
DOCKED: USER                              x       y       z     vdW  Elec       q    Type
DOCKED: USER                           _______ _______ _______ _____ _____    ______ ____
DOCKED: ROOT
DOCKED: ATOM      1  C   UNL d   1      14.693   0.427 -17.740 -0.23 -0.11    +0.194 C 
DOCKED: ATOM      2  C   UNL d   1      13.421   0.644 -18.561 -0.12 -0.05    +0.194 C 
DOCKED: ATOM      3  C   UNL d   1      13.096   2.131 -18.721 -0.07 -0.02    +0.194 C 
DOCKED: ATOM      4  C   UNL d   1      14.271   2.949 -19.250 -0.10 -0.02    +0.194 C 
DOCKED: ATOM      5  C   UNL d   1      15.589   2.679 -18.535 -0.16 -0.04    +0.194 C 
DOCKED: ATOM      6  C   UNL d   1      15.883   1.193 -18.320 -0.19 -0.10    +0.194 C 
DOCKED: ENDROOT
DOCKED: BRANCH   1   7
DOCKED: ATOM      7  O   UNL d   1      15.020  -0.964 -17.783 -0.15 +0.30    -0.278 OA
DOCKED: BRANCH   7   8
DOCKED: ATOM      8  P   UNL d   1      13.943  -2.014 -17.245 -0.03 -0.43    +0.473 P 
DOCKED: ATOM      9  O   UNL d   1      13.076  -1.518 -16.142 -0.20 +0.16    -0.228 OA
DOCKED: BRANCH   8  10
DOCKED: ATOM     10  O   UNL d   1      13.123  -2.430 -18.549 -0.02 +0.11    -0.303 OA
DOCKED: ATOM     11  H   UNL d   1      12.667  -1.648 -18.912 +0.03 -0.06    +0.222 HD
DOCKED: ENDBRANCH   8  10
DOCKED: BRANCH   8  12
DOCKED: ATOM     12  O   UNL d   1      14.771  -3.334 -16.938 -0.07 +0.37    -0.303 OA
DOCKED: ATOM     13  H   UNL d   1      15.327  -3.261 -16.130 -0.52 -0.54    +0.222 HD
DOCKED: ENDBRANCH   8  12
DOCKED: ENDBRANCH   7   8
DOCKED: ENDBRANCH   1   7
DOCKED: BRANCH   2  14
DOCKED: ATOM     14  O   UNL d   1      13.602   0.074 -19.863 -0.02 +0.07    -0.278 OA
DOCKED: BRANCH  14  15
DOCKED: ATOM     15  P   UNL d   1      12.271  -0.259 -20.690 +0.00 -0.07    +0.473 P 
DOCKED: ATOM     16  O   UNL d   1      11.995   0.592 -21.889 -0.00 +0.02    -0.228 OA
DOCKED: BRANCH  15  17
DOCKED: ATOM     17  O   UNL d   1      12.415  -1.804 -21.049 -0.00 +0.05    -0.303 OA
DOCKED: ATOM     18  H   UNL d   1      12.052  -2.366 -20.338 +0.01 -0.04    +0.222 HD
DOCKED: ENDBRANCH  15  17
DOCKED: BRANCH  15  19
DOCKED: ATOM     19  O   UNL d   1      11.120  -0.292 -19.592 -0.01 +0.04    -0.303 OA
DOCKED: ATOM     20  H   UNL d   1      10.679   0.573 -19.507 +0.02 -0.02    +0.222 HD
DOCKED: ENDBRANCH  15  19
DOCKED: ENDBRANCH  14  15
DOCKED: ENDBRANCH   2  14
DOCKED: BRANCH   6  21
DOCKED: ATOM     21  O   UNL d   1      16.937   1.116 -17.363 -0.25 +0.25    -0.278 OA
DOCKED: BRANCH  21  22
DOCKED: ATOM     22  P   UNL d   1      18.424   1.506 -17.789 -0.11 -0.28    +0.473 P 
DOCKED: ATOM     23  O   UNL d   1      18.843   1.251 -19.198 -0.04 +0.09    -0.228 OA
DOCKED: BRANCH  22  24
DOCKED: ATOM     24  O   UNL d   1      18.504   3.029 -17.334 -0.09 +0.06    -0.303 OA
DOCKED: ATOM     25  H   UNL d   1      18.263   3.596 -18.110 +0.06 -0.04    +0.222 HD
DOCKED: ENDBRANCH  22  24
DOCKED: BRANCH  22  26
DOCKED: ATOM     26  O   UNL d   1      19.290   0.775 -16.655 -0.12 +0.28    -0.303 OA
DOCKED: ATOM     27  H   UNL d   1      18.963  -0.140 -16.540 -0.52 -0.51    +0.222 HD
DOCKED: ENDBRANCH  22  26
DOCKED: ENDBRANCH  21  22
DOCKED: ENDBRANCH   6  21
DOCKED: BRANCH   3  28
DOCKED: ATOM     28  O   UNL d   1      12.081   2.244 -19.710 -0.05 +0.03    -0.278 OA
DOCKED: BRANCH  28  29
DOCKED: ATOM     29  P   UNL d   1      10.600   2.661 -19.299 -0.04 -0.03    +0.473 P 
DOCKED: ATOM     30  O   UNL d   1      10.132   2.151 -17.984 -0.10 +0.01    -0.228 OA
DOCKED: BRANCH  29  31
DOCKED: ATOM     31  O   UNL d   1      10.700   4.249 -19.468 -0.03 +0.02    -0.303 OA
DOCKED: ATOM     32  H   UNL d   1      11.651   4.506 -19.469 +0.03 -0.01    +0.222 HD
DOCKED: ENDBRANCH  29  31
DOCKED: BRANCH  29  33
DOCKED: ATOM     33  O   UNL d   1       9.762   2.223 -20.580 -0.01 +0.02    -0.303 OA
DOCKED: ATOM     34  H   UNL d   1      10.167   1.408 -20.966 +0.01 -0.02    +0.222 HD
DOCKED: ENDBRANCH  29  33
DOCKED: ENDBRANCH  28  29
DOCKED: ENDBRANCH   3  28
DOCKED: BRANCH   5  35
DOCKED: ATOM     35  O   UNL d   1      16.607   3.189 -19.393 -0.05 +0.05    -0.278 OA
DOCKED: BRANCH  35  36
DOCKED: ATOM     36  P   UNL d   1      16.628   2.797 -20.939 +0.01 -0.08    +0.473 P 
DOCKED: ATOM     37  O   UNL d   1      15.550   3.412 -21.775 -0.01 +0.03    -0.228 OA
DOCKED: BRANCH  36  38
DOCKED: ATOM     38  O   UNL d   1      18.104   3.217 -21.362 -0.00 +0.04    -0.303 OA
DOCKED: ATOM     39  H   UNL d   1      18.749   2.730 -20.804 +0.01 -0.04    +0.222 HD
DOCKED: ENDBRANCH  36  38
DOCKED: BRANCH  36  40
DOCKED: ATOM     40  O   UNL d   1      16.682   1.208 -20.886 -0.00 +0.07    -0.303 OA
DOCKED: ATOM     41  H   UNL d   1      17.229   0.888 -20.135 +0.03 -0.08    +0.222 HD
DOCKED: ENDBRANCH  36  40
DOCKED: ENDBRANCH  35  36
DOCKED: ENDBRANCH   5  35
DOCKED: BRANCH   4  42
DOCKED: ATOM     42  O   UNL d   1      13.949   4.327 -19.032 -0.09 +0.02    -0.278 OA
DOCKED: BRANCH  42  43
DOCKED: ATOM     43  P   UNL d   1      13.647   5.257 -20.293 -0.02 -0.04    +0.473 P 
DOCKED: ATOM     44  O   UNL d   1      14.802   5.952 -20.926 -0.01 +0.02    -0.228 OA
DOCKED: BRANCH  43  45
DOCKED: ATOM     45  O   UNL d   1      12.862   4.277 -21.270 -0.01 +0.02    -0.303 OA
DOCKED: ATOM     46  H   UNL d   1      12.298   3.652 -20.773 +0.02 -0.02    +0.222 HD
DOCKED: ENDBRANCH  43  45
DOCKED: BRANCH  43  47
DOCKED: ATOM     47  O   UNL d   1      12.468   6.209 -19.771 -0.02 +0.02    -0.303 OA
DOCKED: ATOM     48  H   UNL d   1      11.652   6.021 -20.280 +0.01 -0.02    +0.222 HD
DOCKED: ENDBRANCH  43  47
DOCKED: ENDBRANCH  42  43
DOCKED: ENDBRANCH   4  42
DOCKED: TORSDOF 24
DOCKED: TER
DOCKED: ENDMDL
________________________________________________________________________________


	BEGINNING GENETIC ALGORITHM DOCKING 23 of 100
Run: 23 Seed: 131128156 1560178987 [ Run 23 of 100 GA/GALS ]
Beginning LAMARCKIAN GENETIC ALGORITHM (LGA), with a maximum of 25000000 energy evaluations.

Final-Value: -16.401


	FINAL GENETIC ALGORITHM DOCKED STATE
	_______________________________________________


Detailed state:  trans -12.101 -6.251 16.929 quatxyzw -0.293510 0.131319 -0.764269 0.559017 center 0.035 0.082 -0.065 ntor 24 -147.7906 171.2174 137.1951 0.1422 84.6909 -124.8617 19.2677 -96.7650 33.2115 78.2570 35.0275 -159.9730 60.6409 48.3197 112.3445 -90.1596 -47.8716 -36.2536 74.6709 14.9968 1.2715 29.8472 -20.5116 -15.0364
State:	-12.101  -6.251  16.929  -0.354  0.158 -0.922 112.024   -147.79  171.22  137.20    0.14   84.69 -124.86   19.27  -96.77   33.21   78.26   35.03 -159.97   60.64   48.32  112.34  -90.16  -47.87  -36.25   74.67   15.00    1.27   29.85  -20.51  -15.04

DOCKED: MODEL       23
DOCKED: USER    Run = 23
DOCKED: USER    DPF = D:/Protein_go_brrr/autodock/final/mut_Y35F/IHP/dock.dpf
DOCKED: USER  
DOCKED: USER    Estimated Free Energy of Binding    =   +3.72 kcal/mol  [=(1)+(2)+(3)-(4)]
DOCKED: USER    
DOCKED: USER    (1) Final Intermolecular Energy     =   -3.44 kcal/mol
DOCKED: USER        vdW + Hbond + desolv Energy     =   -3.33 kcal/mol
DOCKED: USER        Electrostatic Energy            =   -0.12 kcal/mol
DOCKED: USER    (2) Final Total Internal Energy     =  -12.96 kcal/mol
DOCKED: USER    (3) Torsional Free Energy           =   +7.16 kcal/mol
DOCKED: USER    (4) Unbound System's Energy  [=(2)] =  -12.96 kcal/mol
DOCKED: USER    
DOCKED: USER    
DOCKED: USER    NEWDPF move IHP_ideal_opt.pdbqt
DOCKED: USER    NEWDPF about 0.035000 0.082000 -0.065000
DOCKED: USER    NEWDPF tran0 -12.100548 -6.251410 16.928715
DOCKED: USER    NEWDPF quaternion0 -0.293510 0.131319 -0.764269 0.559017
DOCKED: USER    NEWDPF axisangle0 -0.353986 0.158377 -0.921743 112.024248
DOCKED: USER    NEWDPF quat0 -0.353986 0.158377 -0.921743 112.024248
DOCKED: USER    NEWDPF dihe0 -147.79 171.22 137.20 0.14 84.69 -124.86 19.27 -96.77 33.21 78.26 35.03 -159.97 60.64 48.32 112.34 -90.16 -47.87 -36.25 74.67 15.00 1.27 29.85 -20.51 -15.04 
DOCKED: USER  keepresnum = 1 
DOCKED: USER  
DOCKED: REMARK  24 active torsions:
DOCKED: REMARK  status: ('A' for Active; 'I' for Inactive)
DOCKED: REMARK    1  A    between atoms: C_1  and  O_7 
DOCKED: REMARK    2  A    between atoms: C_2  and  O_12 
DOCKED: REMARK    3  A    between atoms: C_3  and  O_17 
DOCKED: REMARK    4  A    between atoms: C_4  and  O_22 
DOCKED: REMARK    5  A    between atoms: C_5  and  O_27 
DOCKED: REMARK    6  A    between atoms: C_6  and  O_32 
DOCKED: REMARK    7  A    between atoms: O_7  and  P_8 
DOCKED: REMARK    8  A    between atoms: P_8  and  O_10 
DOCKED: REMARK    9  A    between atoms: P_8  and  O_11 
DOCKED: REMARK   10  A    between atoms: O_12  and  P_13 
DOCKED: REMARK   11  A    between atoms: P_13  and  O_15 
DOCKED: REMARK   12  A    between atoms: P_13  and  O_16 
DOCKED: REMARK   13  A    between atoms: O_17  and  P_18 
DOCKED: REMARK   14  A    between atoms: P_18  and  O_20 
DOCKED: REMARK   15  A    between atoms: P_18  and  O_21 
DOCKED: REMARK   16  A    between atoms: O_22  and  P_23 
DOCKED: REMARK   17  A    between atoms: P_23  and  O_25 
DOCKED: REMARK   18  A    between atoms: P_23  and  O_26 
DOCKED: REMARK   19  A    between atoms: O_27  and  P_28 
DOCKED: REMARK   20  A    between atoms: P_28  and  O_30 
DOCKED: REMARK   21  A    between atoms: P_28  and  O_31 
DOCKED: REMARK   22  A    between atoms: O_32  and  P_33 
DOCKED: REMARK   23  A    between atoms: P_33  and  O_35 
DOCKED: REMARK   24  A    between atoms: P_33  and  O_36 
DOCKED: USER                              x       y       z     vdW  Elec       q    Type
DOCKED: USER                           _______ _______ _______ _____ _____    ______ ____
DOCKED: ROOT
DOCKED: ATOM      1  C   UNL d   1     -11.289  -5.393  18.189 -0.04 -0.03    +0.194 C 
DOCKED: ATOM      2  C   UNL d   1     -10.398  -5.895  17.051 -0.09 -0.04    +0.194 C 
DOCKED: ATOM      3  C   UNL d   1     -10.760  -7.322  16.635 -0.06 -0.04    +0.194 C 
DOCKED: ATOM      4  C   UNL d   1     -12.244  -7.501  16.328 -0.04 -0.08    +0.194 C 
DOCKED: ATOM      5  C   UNL d   1     -13.172  -6.912  17.383 -0.04 -0.05    +0.194 C 
DOCKED: ATOM      6  C   UNL d   1     -12.774  -5.509  17.844 -0.05 -0.04    +0.194 C 
DOCKED: ENDROOT
DOCKED: BRANCH   1   7
DOCKED: ATOM      7  O   UNL d   1     -11.006  -4.008  18.399 -0.04 +0.02    -0.278 OA
DOCKED: BRANCH   7   8
DOCKED: ATOM      8  P   UNL d   1      -9.479  -3.552  18.508 -0.03 +0.00    +0.473 P 
DOCKED: ATOM      9  O   UNL d   1      -8.991  -2.708  17.384 -0.21 -0.03    -0.228 OA
DOCKED: BRANCH   8  10
DOCKED: ATOM     10  O   UNL d   1      -9.393  -2.823  19.924 -0.02 -0.01    -0.303 OA
DOCKED: ATOM     11  H   UNL d   1      -9.725  -3.420  20.620 +0.02 -0.00    +0.222 HD
DOCKED: ENDBRANCH   8  10
DOCKED: BRANCH   8  12
DOCKED: ATOM     12  O   UNL d   1      -8.666  -4.891  18.774 -0.03 +0.01    -0.303 OA
DOCKED: ATOM     13  H   UNL d   1      -7.936  -5.033  18.130 +0.06 -0.01    +0.222 HD
DOCKED: ENDBRANCH   8  12
DOCKED: ENDBRANCH   7   8
DOCKED: ENDBRANCH   1   7
DOCKED: BRANCH   2  14
DOCKED: ATOM     14  O   UNL d   1     -10.561  -5.034  15.917 -0.19 +0.10    -0.278 OA
DOCKED: BRANCH  14  15
DOCKED: ATOM     15  P   UNL d   1      -9.270  -4.811  14.996 -0.20 -0.04    +0.473 P 
DOCKED: ATOM     16  O   UNL d   1      -9.238  -5.546  13.693 -0.93 +0.01    -0.228 OA
DOCKED: BRANCH  15  17
DOCKED: ATOM     17  O   UNL d   1      -9.191  -3.230  14.815 -0.47 -0.05    -0.303 OA
DOCKED: ATOM     18  H   UNL d   1      -9.389  -2.770  15.654 +0.10 +0.04    +0.222 HD
DOCKED: ENDBRANCH  15  17
DOCKED: BRANCH  15  19
DOCKED: ATOM     19  O   UNL d   1      -8.039  -5.082  15.967 -0.24 +0.02    -0.303 OA
DOCKED: ATOM     20  H   UNL d   1      -8.040  -4.474  16.729 +0.09 -0.00    +0.222 HD
DOCKED: ENDBRANCH  15  19
DOCKED: ENDBRANCH  14  15
DOCKED: ENDBRANCH   2  14
DOCKED: BRANCH   6  21
DOCKED: ATOM     21  O   UNL d   1     -13.503  -5.245  19.041 -0.01 +0.03    -0.278 OA
DOCKED: BRANCH  21  22
DOCKED: ATOM     22  P   UNL d   1     -14.809  -4.330  18.987 +0.00 -0.04    +0.473 P 
DOCKED: ATOM     23  O   UNL d   1     -15.961  -4.695  19.861 -0.00 +0.01    -0.228 OA
DOCKED: BRANCH  22  24
DOCKED: ATOM     24  O   UNL d   1     -14.203  -2.883  19.252 -0.00 +0.02    -0.303 OA
DOCKED: ATOM     25  H   UNL d   1     -13.229  -2.918  19.069 +0.03 -0.01    +0.222 HD
DOCKED: ENDBRANCH  22  24
DOCKED: BRANCH  22  26
DOCKED: ATOM     26  O   UNL d   1     -15.108  -4.282  17.413 -0.04 +0.06    -0.303 OA
DOCKED: ATOM     27  H   UNL d   1     -15.276  -5.190  17.089 +0.03 -0.05    +0.222 HD
DOCKED: ENDBRANCH  22  26
DOCKED: ENDBRANCH  21  22
DOCKED: ENDBRANCH   6  21
DOCKED: BRANCH   3  28
DOCKED: ATOM     28  O   UNL d   1     -10.086  -7.596  15.413 -0.11 +0.04    -0.278 OA
DOCKED: BRANCH  28  29
DOCKED: ATOM     29  P   UNL d   1      -9.439  -9.028  15.155 -0.05 +0.07    +0.473 P 
DOCKED: ATOM     30  O   UNL d   1      -7.961  -9.046  15.004 -0.11 +0.02    -0.228 OA
DOCKED: BRANCH  29  31
DOCKED: ATOM     31  O   UNL d   1     -10.053  -9.839  16.391 -0.00 -0.02    -0.303 OA
DOCKED: ATOM     32  H   UNL d   1     -11.016  -9.972  16.231 +0.02 +0.03    +0.222 HD
DOCKED: ENDBRANCH  29  31
DOCKED: BRANCH  29  33
DOCKED: ATOM     33  O   UNL d   1     -10.294  -9.564  13.923 -0.47 -0.35    -0.303 OA
DOCKED: ATOM     34  H   UNL d   1     -11.234  -9.279  14.037 +0.04 +0.29    +0.222 HD
DOCKED: ENDBRANCH  29  33
DOCKED: ENDBRANCH  28  29
DOCKED: ENDBRANCH   3  28
DOCKED: BRANCH   5  35
DOCKED: ATOM     35  O   UNL d   1     -14.449  -6.803  16.759 -0.05 +0.10    -0.278 OA
DOCKED: BRANCH  35  36
DOCKED: ATOM     36  P   UNL d   1     -15.648  -7.754  17.207 +0.01 -0.06    +0.473 P 
DOCKED: ATOM     37  O   UNL d   1     -15.305  -8.783  18.237 +0.00 +0.01    -0.228 OA
DOCKED: BRANCH  36  38
DOCKED: ATOM     38  O   UNL d   1     -16.744  -6.698  17.677 +0.00 +0.03    -0.303 OA
DOCKED: ATOM     39  H   UNL d   1     -16.295  -5.946  18.121 +0.01 -0.02    +0.222 HD
DOCKED: ENDBRANCH  36  38
DOCKED: BRANCH  36  40
DOCKED: ATOM     40  O   UNL d   1     -16.201  -8.284  15.813 -0.00 +0.04    -0.303 OA
DOCKED: ATOM     41  H   UNL d   1     -15.476  -8.434  15.167 +0.02 -0.04    +0.222 HD
DOCKED: ENDBRANCH  36  40
DOCKED: ENDBRANCH  35  36
DOCKED: ENDBRANCH   5  35
DOCKED: BRANCH   4  42
DOCKED: ATOM     42  O   UNL d   1     -12.493  -8.910  16.288 -0.03 +0.02    -0.278 OA
DOCKED: BRANCH  42  43
DOCKED: ATOM     43  P   UNL d   1     -13.190  -9.535  14.997 -0.05 +0.11    +0.473 P 
DOCKED: ATOM     44  O   UNL d   1     -13.352  -8.651  13.809 -0.12 -0.08    -0.228 OA
DOCKED: BRANCH  43  45
DOCKED: ATOM     45  O   UNL d   1     -12.319 -10.838  14.725 -0.06 -0.16    -0.303 OA
DOCKED: ATOM     46  H   UNL d   1     -11.370 -10.677  14.902 +0.02 +0.11    +0.222 HD
DOCKED: ENDBRANCH  43  45
DOCKED: BRANCH  43  47
DOCKED: ATOM     47  O   UNL d   1     -14.544 -10.164  15.580 -0.00 -0.02    -0.303 OA
DOCKED: ATOM     48  H   UNL d   1     -14.739  -9.759  16.451 +0.01 -0.00    +0.222 HD
DOCKED: ENDBRANCH  43  47
DOCKED: ENDBRANCH  42  43
DOCKED: ENDBRANCH   4  42
DOCKED: TORSDOF 24
DOCKED: TER
DOCKED: ENDMDL
________________________________________________________________________________


	BEGINNING GENETIC ALGORITHM DOCKING 24 of 100
Run: 24 Seed: 549051736 216303324 [ Run 24 of 100 GA/GALS ]
Beginning LAMARCKIAN GENETIC ALGORITHM (LGA), with a maximum of 25000000 energy evaluations.

Final-Value: -17.408


	FINAL GENETIC ALGORITHM DOCKED STATE
	_______________________________________________


Detailed state:  trans 7.937 -5.726 11.477 quatxyzw -0.840585 -0.101784 0.181056 -0.500275 center 0.035 0.082 -0.065 ntor 24 -179.8444 86.3136 142.8253 144.0795 14.3808 -139.5865 -98.2439 -21.8949 -71.3309 15.1822 148.8330 144.1801 132.8021 90.7504 -49.0503 27.0457 13.3765 -175.9608 39.3787 -16.8701 -175.1690 -41.2853 -16.6957 12.7913
State:	  7.937  -5.726  11.477  -0.971 -0.118  0.209 -119.964   -179.84   86.31  142.83  144.08   14.38 -139.59  -98.24  -21.89  -71.33   15.18  148.83  144.18  132.80   90.75  -49.05   27.05   13.38 -175.96   39.38  -16.87 -175.17  -41.29  -16.70   12.79

DOCKED: MODEL       24
DOCKED: USER    Run = 24
DOCKED: USER    DPF = D:/Protein_go_brrr/autodock/final/mut_Y35F/IHP/dock.dpf
DOCKED: USER  
DOCKED: USER    Estimated Free Energy of Binding    =   +3.51 kcal/mol  [=(1)+(2)+(3)-(4)]
DOCKED: USER    
DOCKED: USER    (1) Final Intermolecular Energy     =   -3.65 kcal/mol
DOCKED: USER        vdW + Hbond + desolv Energy     =   -3.16 kcal/mol
DOCKED: USER        Electrostatic Energy            =   -0.49 kcal/mol
DOCKED: USER    (2) Final Total Internal Energy     =  -13.76 kcal/mol
DOCKED: USER    (3) Torsional Free Energy           =   +7.16 kcal/mol
DOCKED: USER    (4) Unbound System's Energy  [=(2)] =  -13.76 kcal/mol
DOCKED: USER    
DOCKED: USER    
DOCKED: USER    NEWDPF move IHP_ideal_opt.pdbqt
DOCKED: USER    NEWDPF about 0.035000 0.082000 -0.065000
DOCKED: USER    NEWDPF tran0 7.936848 -5.726041 11.476505
DOCKED: USER    NEWDPF quaternion0 -0.840585 -0.101784 0.181056 -0.500275
DOCKED: USER    NEWDPF axisangle0 -0.970802 -0.117552 0.209104 -119.963597
DOCKED: USER    NEWDPF quat0 -0.970802 -0.117552 0.209104 -119.963597
DOCKED: USER    NEWDPF dihe0 -179.84 86.31 142.83 144.08 14.38 -139.59 -98.24 -21.89 -71.33 15.18 148.83 144.18 132.80 90.75 -49.05 27.05 13.38 -175.96 39.38 -16.87 -175.17 -41.29 -16.70 12.79 
DOCKED: USER  keepresnum = 1 
DOCKED: USER  
DOCKED: REMARK  24 active torsions:
DOCKED: REMARK  status: ('A' for Active; 'I' for Inactive)
DOCKED: REMARK    1  A    between atoms: C_1  and  O_7 
DOCKED: REMARK    2  A    between atoms: C_2  and  O_12 
DOCKED: REMARK    3  A    between atoms: C_3  and  O_17 
DOCKED: REMARK    4  A    between atoms: C_4  and  O_22 
DOCKED: REMARK    5  A    between atoms: C_5  and  O_27 
DOCKED: REMARK    6  A    between atoms: C_6  and  O_32 
DOCKED: REMARK    7  A    between atoms: O_7  and  P_8 
DOCKED: REMARK    8  A    between atoms: P_8  and  O_10 
DOCKED: REMARK    9  A    between atoms: P_8  and  O_11 
DOCKED: REMARK   10  A    between atoms: O_12  and  P_13 
DOCKED: REMARK   11  A    between atoms: P_13  and  O_15 
DOCKED: REMARK   12  A    between atoms: P_13  and  O_16 
DOCKED: REMARK   13  A    between atoms: O_17  and  P_18 
DOCKED: REMARK   14  A    between atoms: P_18  and  O_20 
DOCKED: REMARK   15  A    between atoms: P_18  and  O_21 
DOCKED: REMARK   16  A    between atoms: O_22  and  P_23 
DOCKED: REMARK   17  A    between atoms: P_23  and  O_25 
DOCKED: REMARK   18  A    between atoms: P_23  and  O_26 
DOCKED: REMARK   19  A    between atoms: O_27  and  P_28 
DOCKED: REMARK   20  A    between atoms: P_28  and  O_30 
DOCKED: REMARK   21  A    between atoms: P_28  and  O_31 
DOCKED: REMARK   22  A    between atoms: O_32  and  P_33 
DOCKED: REMARK   23  A    between atoms: P_33  and  O_35 
DOCKED: REMARK   24  A    between atoms: P_33  and  O_36 
DOCKED: USER                              x       y       z     vdW  Elec       q    Type
DOCKED: USER                           _______ _______ _______ _____ _____    ______ ____
DOCKED: ROOT
DOCKED: ATOM      1  C   UNL d   1       8.769  -4.223  11.659 -0.03 -0.01    +0.194 C 
DOCKED: ATOM      2  C   UNL d   1       7.787  -4.575  12.778 -0.02 -0.04    +0.194 C 
DOCKED: ATOM      3  C   UNL d   1       6.478  -5.142  12.225 -0.08 -0.08    +0.194 C 
DOCKED: ATOM      4  C   UNL d   1       6.687  -6.302  11.255 -0.07 -0.05    +0.194 C 
DOCKED: ATOM      5  C   UNL d   1       7.743  -6.037  10.189 -0.09 -0.02    +0.194 C 
DOCKED: ATOM      6  C   UNL d   1       9.029  -5.413  10.734 -0.05 +0.00    +0.194 C 
DOCKED: ENDROOT
DOCKED: BRANCH   1   7
DOCKED: ATOM      7  O   UNL d   1      10.018  -3.868  12.257 -0.01 -0.01    -0.278 OA
DOCKED: BRANCH   7   8
DOCKED: ATOM      8  P   UNL d   1      10.208  -2.373  12.787 +0.00 +0.03    +0.473 P 
DOCKED: ATOM      9  O   UNL d   1      11.567  -2.053  13.302 -0.01 -0.02    -0.228 OA
DOCKED: BRANCH   8  10
DOCKED: ATOM     10  O   UNL d   1       9.776  -1.466  11.548 -0.06 -0.05    -0.303 OA
DOCKED: ATOM     11  H   UNL d   1       9.197  -1.978  10.954 +0.06 +0.03    +0.222 HD
DOCKED: ENDBRANCH   8  10
DOCKED: BRANCH   8  12
DOCKED: ATOM     12  O   UNL d   1       9.009  -2.140  13.803 -0.00 +0.00    -0.303 OA
DOCKED: ATOM     13  H   UNL d   1       8.835  -2.918  14.379 +0.01 -0.01    +0.222 HD
DOCKED: ENDBRANCH   8  12
DOCKED: ENDBRANCH   7   8
DOCKED: ENDBRANCH   1   7
DOCKED: BRANCH   2  14
DOCKED: ATOM     14  O   UNL d   1       8.385  -5.558  13.633 +0.00 +0.03    -0.278 OA
DOCKED: BRANCH  14  15
DOCKED: ATOM     15  P   UNL d   1       8.692  -5.105  15.138 +0.01 -0.04    +0.473 P 
DOCKED: ATOM     16  O   UNL d   1       8.558  -6.155  16.196 +0.00 +0.02    -0.228 OA
DOCKED: BRANCH  15  17
DOCKED: ATOM     17  O   UNL d   1      10.158  -4.486  15.065 +0.00 +0.01    -0.303 OA
DOCKED: ATOM     18  H   UNL d   1      10.243  -3.870  14.312 +0.00 -0.00    +0.222 HD
DOCKED: ENDBRANCH  15  17
DOCKED: BRANCH  15  19
DOCKED: ATOM     19  O   UNL d   1       7.806  -3.801  15.349 +0.00 +0.05    -0.303 OA
DOCKED: ATOM     20  H   UNL d   1       6.892  -4.024  15.606 +0.01 -0.05    +0.222 HD
DOCKED: ENDBRANCH  15  19
DOCKED: ENDBRANCH  14  15
DOCKED: ENDBRANCH   2  14
DOCKED: BRANCH   6  21
DOCKED: ATOM     21  O   UNL d   1       9.755  -4.919   9.611 -0.10 -0.03    -0.278 OA
DOCKED: BRANCH  21  22
DOCKED: ATOM     22  P   UNL d   1       9.389  -3.493   8.997 -0.20 +0.05    +0.473 P 
DOCKED: ATOM     23  O   UNL d   1       8.055  -2.908   9.318 -0.31 -0.00    -0.228 OA
DOCKED: BRANCH  22  24
DOCKED: ATOM     24  O   UNL d   1      10.632  -2.611   9.457 -0.14 -0.06    -0.303 OA
DOCKED: ATOM     25  H   UNL d   1      10.749  -2.729  10.434 +0.06 +0.04    +0.222 HD
DOCKED: ENDBRANCH  22  24
DOCKED: BRANCH  22  26
DOCKED: ATOM     26  O   UNL d   1       9.701  -3.718   7.441 -0.15 -0.03    -0.303 OA
DOCKED: ATOM     27  H   UNL d   1       9.310  -4.568   7.154 +0.08 +0.00    +0.222 HD
DOCKED: ENDBRANCH  22  26
DOCKED: ENDBRANCH  21  22
DOCKED: ENDBRANCH   6  21
DOCKED: BRANCH   3  28
DOCKED: ATOM     28  O   UNL d   1       5.753  -5.690  13.318 -0.05 +0.16    -0.278 OA
DOCKED: BRANCH  28  29
DOCKED: ATOM     29  P   UNL d   1       5.127  -4.735  14.429 -0.04 -0.36    +0.473 P 
DOCKED: ATOM     30  O   UNL d   1       5.338  -3.280  14.215 -0.08 +0.18    -0.228 OA
DOCKED: BRANCH  29  31
DOCKED: ATOM     31  O   UNL d   1       3.615  -5.258  14.427 +0.05 +0.45    -0.303 OA
DOCKED: ATOM     32  H   UNL d   1       3.310  -5.334  13.493 -0.50 -0.66    +0.222 HD
DOCKED: ENDBRANCH  29  31
DOCKED: BRANCH  29  33
DOCKED: ATOM     33  O   UNL d   1       5.713  -5.357  15.772 -0.01 +0.10    -0.303 OA
DOCKED: ATOM     34  H   UNL d   1       6.639  -5.662  15.608 +0.01 -0.05    +0.222 HD
DOCKED: ENDBRANCH  29  33
DOCKED: ENDBRANCH  28  29
DOCKED: ENDBRANCH   3  28
DOCKED: BRANCH   5  35
DOCKED: ATOM     35  O   UNL d   1       8.088  -7.316   9.660 -0.05 +0.01    -0.278 OA
DOCKED: BRANCH  35  36
DOCKED: ATOM     36  P   UNL d   1       7.742  -7.681   8.147 -0.13 -0.04    +0.473 P 
DOCKED: ATOM     37  O   UNL d   1       8.321  -6.766   7.114 -0.35 +0.02    -0.228 OA
DOCKED: BRANCH  36  38
DOCKED: ATOM     38  O   UNL d   1       8.253  -9.186   8.049 -0.10 +0.03    -0.303 OA
DOCKED: ATOM     39  H   UNL d   1       8.668  -9.327   7.171 +0.07 -0.06    +0.222 HD
DOCKED: ENDBRANCH  36  38
DOCKED: BRANCH  36  40
DOCKED: ATOM     40  O   UNL d   1       6.158  -7.816   8.183 -0.18 +0.03    -0.303 OA
DOCKED: ATOM     41  H   UNL d   1       5.834  -8.066   9.077 +0.09 -0.03    +0.222 HD
DOCKED: ENDBRANCH  36  40
DOCKED: ENDBRANCH  35  36
DOCKED: ENDBRANCH   5  35
DOCKED: BRANCH   4  42
DOCKED: ATOM     42  O   UNL d   1       5.443  -6.503  10.574 -0.14 +0.10    -0.278 OA
DOCKED: BRANCH  42  43
DOCKED: ATOM     43  P   UNL d   1       4.463  -7.653  11.083 -0.09 -0.20    +0.473 P 
DOCKED: ATOM     44  O   UNL d   1       3.930  -8.601  10.065 -0.13 +0.05    -0.228 OA
DOCKED: BRANCH  43  45
DOCKED: ATOM     45  O   UNL d   1       5.308  -8.346  12.239 -0.01 +0.09    -0.303 OA
DOCKED: ATOM     46  H   UNL d   1       5.318  -7.802  13.051 +0.03 -0.08    +0.222 HD
DOCKED: ENDBRANCH  43  45
DOCKED: BRANCH  43  47
DOCKED: ATOM     47  O   UNL d   1       3.360  -6.849  11.923 -0.10 +0.37    -0.303 OA
DOCKED: ATOM     48  H   UNL d   1       3.792  -6.110  12.400 -0.37 -0.37    +0.222 HD
DOCKED: ENDBRANCH  43  47
DOCKED: ENDBRANCH  42  43
DOCKED: ENDBRANCH   4  42
DOCKED: TORSDOF 24
DOCKED: TER
DOCKED: ENDMDL
________________________________________________________________________________


	BEGINNING GENETIC ALGORITHM DOCKING 25 of 100
Run: 25 Seed: 721365386 1374850783 [ Run 25 of 100 GA/GALS ]
Beginning LAMARCKIAN GENETIC ALGORITHM (LGA), with a maximum of 25000000 energy evaluations.

Final-Value: -18.380


	FINAL GENETIC ALGORITHM DOCKED STATE
	_______________________________________________


Detailed state:  trans -10.152 10.544 -2.603 quatxyzw -0.728366 0.461237 -0.433536 0.262279 center 0.035 0.082 -0.065 ntor 24 -92.8763 9.9870 120.8221 -19.9669 124.7545 169.3772 -100.6744 -20.7605 179.8921 95.7620 -143.1876 173.0775 169.3693 -179.9697 40.3299 169.4933 89.8526 162.8118 56.2507 12.3502 -174.5034 13.0040 13.4086 -177.5438
State:	-10.152  10.544  -2.603  -0.755  0.478 -0.449 149.589    -92.88    9.99  120.82  -19.97  124.75  169.38 -100.67  -20.76  179.89   95.76 -143.19  173.08  169.37 -179.97   40.33  169.49   89.85  162.81   56.25   12.35 -174.50   13.00   13.41 -177.54

DOCKED: MODEL       25
DOCKED: USER    Run = 25
DOCKED: USER    DPF = D:/Protein_go_brrr/autodock/final/mut_Y35F/IHP/dock.dpf
DOCKED: USER  
DOCKED: USER    Estimated Free Energy of Binding    =   +3.05 kcal/mol  [=(1)+(2)+(3)-(4)]
DOCKED: USER    
DOCKED: USER    (1) Final Intermolecular Energy     =   -4.11 kcal/mol
DOCKED: USER        vdW + Hbond + desolv Energy     =   -3.78 kcal/mol
DOCKED: USER        Electrostatic Energy            =   -0.33 kcal/mol
DOCKED: USER    (2) Final Total Internal Energy     =  -14.27 kcal/mol
DOCKED: USER    (3) Torsional Free Energy           =   +7.16 kcal/mol
DOCKED: USER    (4) Unbound System's Energy  [=(2)] =  -14.27 kcal/mol
DOCKED: USER    
DOCKED: USER    
DOCKED: USER    NEWDPF move IHP_ideal_opt.pdbqt
DOCKED: USER    NEWDPF about 0.035000 0.082000 -0.065000
DOCKED: USER    NEWDPF tran0 -10.151962 10.543642 -2.602726
DOCKED: USER    NEWDPF quaternion0 -0.728366 0.461237 -0.433536 0.262279
DOCKED: USER    NEWDPF axisangle0 -0.754789 0.477970 -0.449264 149.589307
DOCKED: USER    NEWDPF quat0 -0.754789 0.477970 -0.449264 149.589307
DOCKED: USER    NEWDPF dihe0 -92.88 9.99 120.82 -19.97 124.75 169.38 -100.67 -20.76 179.89 95.76 -143.19 173.08 169.37 -179.97 40.33 169.49 89.85 162.81 56.25 12.35 -174.50 13.00 13.41 -177.54 
DOCKED: USER  keepresnum = 1 
DOCKED: USER  
DOCKED: REMARK  24 active torsions:
DOCKED: REMARK  status: ('A' for Active; 'I' for Inactive)
DOCKED: REMARK    1  A    between atoms: C_1  and  O_7 
DOCKED: REMARK    2  A    between atoms: C_2  and  O_12 
DOCKED: REMARK    3  A    between atoms: C_3  and  O_17 
DOCKED: REMARK    4  A    between atoms: C_4  and  O_22 
DOCKED: REMARK    5  A    between atoms: C_5  and  O_27 
DOCKED: REMARK    6  A    between atoms: C_6  and  O_32 
DOCKED: REMARK    7  A    between atoms: O_7  and  P_8 
DOCKED: REMARK    8  A    between atoms: P_8  and  O_10 
DOCKED: REMARK    9  A    between atoms: P_8  and  O_11 
DOCKED: REMARK   10  A    between atoms: O_12  and  P_13 
DOCKED: REMARK   11  A    between atoms: P_13  and  O_15 
DOCKED: REMARK   12  A    between atoms: P_13  and  O_16 
DOCKED: REMARK   13  A    between atoms: O_17  and  P_18 
DOCKED: REMARK   14  A    between atoms: P_18  and  O_20 
DOCKED: REMARK   15  A    between atoms: P_18  and  O_21 
DOCKED: REMARK   16  A    between atoms: O_22  and  P_23 
DOCKED: REMARK   17  A    between atoms: P_23  and  O_25 
DOCKED: REMARK   18  A    between atoms: P_23  and  O_26 
DOCKED: REMARK   19  A    between atoms: O_27  and  P_28 
DOCKED: REMARK   20  A    between atoms: P_28  and  O_30 
DOCKED: REMARK   21  A    between atoms: P_28  and  O_31 
DOCKED: REMARK   22  A    between atoms: O_32  and  P_33 
DOCKED: REMARK   23  A    between atoms: P_33  and  O_35 
DOCKED: REMARK   24  A    between atoms: P_33  and  O_36 
DOCKED: USER                              x       y       z     vdW  Elec       q    Type
DOCKED: USER                           _______ _______ _______ _____ _____    ______ ____
DOCKED: ROOT
DOCKED: ATOM      1  C   UNL d   1      -8.796   9.756  -1.877 -0.14 -0.05    +0.194 C 
DOCKED: ATOM      2  C   UNL d   1      -8.465  10.951  -2.773 -0.13 -0.11    +0.194 C 
DOCKED: ATOM      3  C   UNL d   1      -9.289  10.938  -4.063 -0.11 -0.07    +0.194 C 
DOCKED: ATOM      4  C   UNL d   1     -10.790  10.800  -3.815 -0.02 -0.03    +0.194 C 
DOCKED: ATOM      5  C   UNL d   1     -11.158   9.693  -2.837 -0.02 -0.01    +0.194 C 
DOCKED: ATOM      6  C   UNL d   1     -10.293   9.668  -1.575 -0.06 -0.03    +0.194 C 
DOCKED: ENDROOT
DOCKED: BRANCH   1   7
DOCKED: ATOM      7  O   UNL d   1      -8.120   9.933  -0.630 -0.12 +0.08    -0.278 OA
DOCKED: BRANCH   7   8
DOCKED: ATOM      8  P   UNL d   1      -6.523   9.882  -0.619 -0.27 -0.19    +0.473 P 
DOCKED: ATOM      9  O   UNL d   1      -5.923   9.150   0.528 -0.47 +0.07    -0.228 OA
DOCKED: BRANCH   8  10
DOCKED: ATOM     10  O   UNL d   1      -6.146   9.249  -2.035 -0.35 +0.22    -0.303 OA
DOCKED: ATOM     11  H   UNL d   1      -5.747   9.934  -2.603 -0.34 -0.36    +0.222 HD
DOCKED: ENDBRANCH   8  10
DOCKED: BRANCH   8  12
DOCKED: ATOM     12  O   UNL d   1      -6.061  11.392  -0.797 -0.28 +0.15    -0.303 OA
DOCKED: ATOM     13  H   UNL d   1      -6.655  11.910  -1.386 +0.10 -0.13    +0.222 HD
DOCKED: ENDBRANCH   8  12
DOCKED: ENDBRANCH   7   8
DOCKED: ENDBRANCH   1   7
DOCKED: BRANCH   2  14
DOCKED: ATOM     14  O   UNL d   1      -8.749  12.162  -2.062 -0.04 +0.10    -0.278 OA
DOCKED: BRANCH  14  15
DOCKED: ATOM     15  P   UNL d   1      -7.759  13.393  -2.320 -0.05 -0.21    +0.473 P 
DOCKED: ATOM     16  O   UNL d   1      -7.107  13.995  -1.116 -0.11 +0.09    -0.228 OA
DOCKED: BRANCH  15  17
DOCKED: ATOM     17  O   UNL d   1      -6.707  12.830  -3.376 -0.17 +0.28    -0.303 OA
DOCKED: ATOM     18  H   UNL d   1      -7.090  12.098  -3.897 -0.23 -0.32    +0.222 HD
DOCKED: ENDBRANCH  15  17
DOCKED: BRANCH  15  19
DOCKED: ATOM     19  O   UNL d   1      -8.604  14.399  -3.218 -0.01 +0.09    -0.303 OA
DOCKED: ATOM     20  H   UNL d   1      -8.616  14.125  -4.153 +0.03 -0.07    +0.222 HD
DOCKED: ENDBRANCH  15  19
DOCKED: ENDBRANCH  14  15
DOCKED: ENDBRANCH   2  14
DOCKED: BRANCH   6  21
DOCKED: ATOM     21  O   UNL d   1     -10.519   8.409  -0.945 -0.09 +0.03    -0.278 OA
DOCKED: BRANCH  21  22
DOCKED: ATOM     22  P   UNL d   1      -9.715   7.122  -1.437 -0.11 -0.01    +0.473 P 
DOCKED: ATOM     23  O   UNL d   1      -8.255   7.045  -1.137 -0.27 +0.00    -0.228 OA
DOCKED: BRANCH  22  24
DOCKED: ATOM     24  O   UNL d   1     -10.585   5.940  -0.822 -0.21 -0.01    -0.303 OA
DOCKED: ATOM     25  H   UNL d   1     -11.506   6.017  -1.179 +0.06 +0.01    +0.222 HD
DOCKED: ENDBRANCH  22  24
DOCKED: BRANCH  22  26
DOCKED: ATOM     26  O   UNL d   1     -10.118   7.058  -2.987 -0.07 -0.04    -0.303 OA
DOCKED: ATOM     27  H   UNL d   1     -10.781   7.754  -3.176 +0.05 +0.01    +0.222 HD
DOCKED: ENDBRANCH  22  26
DOCKED: ENDBRANCH  21  22
DOCKED: ENDBRANCH   6  21
DOCKED: BRANCH   3  28
DOCKED: ATOM     28  O   UNL d   1      -9.125  12.204  -4.689 -0.06 +0.11    -0.278 OA
DOCKED: BRANCH  28  29
DOCKED: ATOM     29  P   UNL d   1      -8.585  12.297  -6.184 -0.07 -0.20    +0.473 P 
DOCKED: ATOM     30  O   UNL d   1      -9.185  13.372  -7.016 -0.01 +0.05    -0.228 OA
DOCKED: BRANCH  29  31
DOCKED: ATOM     31  O   UNL d   1      -7.011  12.385  -5.908 -0.07 +0.31    -0.303 OA
DOCKED: ATOM     32  H   UNL d   1      -6.851  13.075  -5.224 +0.04 -0.19    +0.222 HD
DOCKED: ENDBRANCH  29  31
DOCKED: BRANCH  29  33
DOCKED: ATOM     33  O   UNL d   1      -8.768  10.802  -6.700 -0.15 +0.08    -0.303 OA
DOCKED: ATOM     34  H   UNL d   1      -9.612  10.438  -6.335 +0.04 -0.03    +0.222 HD
DOCKED: ENDBRANCH  29  33
DOCKED: ENDBRANCH  28  29
DOCKED: ENDBRANCH   3  28
DOCKED: BRANCH   5  35
DOCKED: ATOM     35  O   UNL d   1     -12.495   9.971  -2.423 -0.00 +0.01    -0.278 OA
DOCKED: BRANCH  35  36
DOCKED: ATOM     36  P   UNL d   1     -13.517   8.777  -2.150 +0.01 -0.00    +0.473 P 
DOCKED: ATOM     37  O   UNL d   1     -14.319   8.890  -0.893 -0.01 -0.00    -0.228 OA
DOCKED: BRANCH  36  38
DOCKED: ATOM     38  O   UNL d   1     -14.387   8.781  -3.484 +0.00 -0.00    -0.303 OA
DOCKED: ATOM     39  H   UNL d   1     -14.174   7.979  -4.008 +0.01 +0.00    +0.222 HD
DOCKED: ENDBRANCH  36  38
DOCKED: BRANCH  36  40
DOCKED: ATOM     40  O   UNL d   1     -12.590   7.494  -2.301 -0.01 -0.01    -0.303 OA
DOCKED: ATOM     41  H   UNL d   1     -11.799   7.545  -1.719 +0.04 +0.00    +0.222 HD
DOCKED: ENDBRANCH  36  40
DOCKED: ENDBRANCH  35  36
DOCKED: ENDBRANCH   5  35
DOCKED: BRANCH   4  42
DOCKED: ATOM     42  O   UNL d   1     -11.388  10.467  -5.073 -0.01 +0.02    -0.278 OA
DOCKED: BRANCH  42  43
DOCKED: ATOM     43  P   UNL d   1     -11.147   9.012  -5.680 -0.03 +0.03    +0.473 P 
DOCKED: ATOM     44  O   UNL d   1     -11.180   8.873  -7.163 -0.03 -0.02    -0.228 OA
DOCKED: BRANCH  43  45
DOCKED: ATOM     45  O   UNL d   1      -9.766   8.581  -5.017 -0.06 -0.05    -0.303 OA
DOCKED: ATOM     46  H   UNL d   1      -9.751   7.626  -4.809 +0.05 +0.08    +0.222 HD
DOCKED: ENDBRANCH  43  45
DOCKED: BRANCH  43  47
DOCKED: ATOM     47  O   UNL d   1     -12.192   8.101  -4.876 -0.01 -0.02    -0.303 OA
DOCKED: ATOM     48  H   UNL d   1     -12.597   8.632  -4.159 +0.02 +0.00    +0.222 HD
DOCKED: ENDBRANCH  43  47
DOCKED: ENDBRANCH  42  43
DOCKED: ENDBRANCH   4  42
DOCKED: TORSDOF 24
DOCKED: TER
DOCKED: ENDMDL
________________________________________________________________________________


	BEGINNING GENETIC ALGORITHM DOCKING 26 of 100
Run: 26 Seed: 1220950185 461202876 [ Run 26 of 100 GA/GALS ]
Beginning LAMARCKIAN GENETIC ALGORITHM (LGA), with a maximum of 25000000 energy evaluations.

Final-Value: -17.191


	FINAL GENETIC ALGORITHM DOCKED STATE
	_______________________________________________


Detailed state:  trans 9.157 10.117 16.828 quatxyzw -0.694934 0.507464 -0.480213 -0.170121 center 0.035 0.082 -0.065 ntor 24 124.4397 120.7523 143.4427 35.6010 126.7804 141.6344 -11.8854 176.4386 81.8584 13.4871 -14.0437 -116.4947 143.1592 86.3924 40.8558 128.5461 156.5332 -27.5672 36.0802 -14.3275 163.4156 -28.1048 -11.8375 157.9352
State:	  9.157  10.117  16.828  -0.705  0.515 -0.487 -160.410    124.44  120.75  143.44   35.60  126.78  141.63  -11.89  176.44   81.86   13.49  -14.04 -116.49  143.16   86.39   40.86  128.55  156.53  -27.57   36.08  -14.33  163.42  -28.10  -11.84  157.94

DOCKED: MODEL       26
DOCKED: USER    Run = 26
DOCKED: USER    DPF = D:/Protein_go_brrr/autodock/final/mut_Y35F/IHP/dock.dpf
DOCKED: USER  
DOCKED: USER    Estimated Free Energy of Binding    =   +4.93 kcal/mol  [=(1)+(2)+(3)-(4)]
DOCKED: USER    
DOCKED: USER    (1) Final Intermolecular Energy     =   -2.23 kcal/mol
DOCKED: USER        vdW + Hbond + desolv Energy     =   -2.07 kcal/mol
DOCKED: USER        Electrostatic Energy            =   -0.16 kcal/mol
DOCKED: USER    (2) Final Total Internal Energy     =  -14.96 kcal/mol
DOCKED: USER    (3) Torsional Free Energy           =   +7.16 kcal/mol
DOCKED: USER    (4) Unbound System's Energy  [=(2)] =  -14.96 kcal/mol
DOCKED: USER    
DOCKED: USER    
DOCKED: USER    NEWDPF move IHP_ideal_opt.pdbqt
DOCKED: USER    NEWDPF about 0.035000 0.082000 -0.065000
DOCKED: USER    NEWDPF tran0 9.156804 10.117116 16.827947
DOCKED: USER    NEWDPF quaternion0 -0.694934 0.507464 -0.480213 -0.170121
DOCKED: USER    NEWDPF axisangle0 -0.705214 0.514971 -0.487317 -160.410273
DOCKED: USER    NEWDPF quat0 -0.705214 0.514971 -0.487317 -160.410273
DOCKED: USER    NEWDPF dihe0 124.44 120.75 143.44 35.60 126.78 141.63 -11.89 176.44 81.86 13.49 -14.04 -116.49 143.16 86.39 40.86 128.55 156.53 -27.57 36.08 -14.33 163.42 -28.10 -11.84 157.94 
DOCKED: USER  keepresnum = 1 
DOCKED: USER  
DOCKED: REMARK  24 active torsions:
DOCKED: REMARK  status: ('A' for Active; 'I' for Inactive)
DOCKED: REMARK    1  A    between atoms: C_1  and  O_7 
DOCKED: REMARK    2  A    between atoms: C_2  and  O_12 
DOCKED: REMARK    3  A    between atoms: C_3  and  O_17 
DOCKED: REMARK    4  A    between atoms: C_4  and  O_22 
DOCKED: REMARK    5  A    between atoms: C_5  and  O_27 
DOCKED: REMARK    6  A    between atoms: C_6  and  O_32 
DOCKED: REMARK    7  A    between atoms: O_7  and  P_8 
DOCKED: REMARK    8  A    between atoms: P_8  and  O_10 
DOCKED: REMARK    9  A    between atoms: P_8  and  O_11 
DOCKED: REMARK   10  A    between atoms: O_12  and  P_13 
DOCKED: REMARK   11  A    between atoms: P_13  and  O_15 
DOCKED: REMARK   12  A    between atoms: P_13  and  O_16 
DOCKED: REMARK   13  A    between atoms: O_17  and  P_18 
DOCKED: REMARK   14  A    between atoms: P_18  and  O_20 
DOCKED: REMARK   15  A    between atoms: P_18  and  O_21 
DOCKED: REMARK   16  A    between atoms: O_22  and  P_23 
DOCKED: REMARK   17  A    between atoms: P_23  and  O_25 
DOCKED: REMARK   18  A    between atoms: P_23  and  O_26 
DOCKED: REMARK   19  A    between atoms: O_27  and  P_28 
DOCKED: REMARK   20  A    between atoms: P_28  and  O_30 
DOCKED: REMARK   21  A    between atoms: P_28  and  O_31 
DOCKED: REMARK   22  A    between atoms: O_32  and  P_33 
DOCKED: REMARK   23  A    between atoms: P_33  and  O_35 
DOCKED: REMARK   24  A    between atoms: P_33  and  O_36 
DOCKED: USER                              x       y       z     vdW  Elec       q    Type
DOCKED: USER                           _______ _______ _______ _____ _____    ______ ____
DOCKED: ROOT
DOCKED: ATOM      1  C   UNL d   1      10.332   9.209  17.710 +0.00 +0.04    +0.194 C 
DOCKED: ATOM      2  C   UNL d   1      10.428  10.729  17.852 -0.01 +0.07    +0.194 C 
DOCKED: ATOM      3  C   UNL d   1      10.246  11.437  16.508 -0.06 +0.15    +0.194 C 
DOCKED: ATOM      4  C   UNL d   1       8.983  11.005  15.767 -0.09 +0.18    +0.194 C 
DOCKED: ATOM      5  C   UNL d   1       8.787   9.496  15.702 -0.06 +0.08    +0.194 C 
DOCKED: ATOM      6  C   UNL d   1       9.030   8.781  17.033 -0.01 +0.04    +0.194 C 
DOCKED: ENDROOT
DOCKED: BRANCH   1   7
DOCKED: ATOM      7  O   UNL d   1      10.339   8.638  19.021 +0.00 -0.03    -0.278 OA
DOCKED: BRANCH   7   8
DOCKED: ATOM      8  P   UNL d   1      11.748   8.329  19.707 +0.00 +0.04    +0.473 P 
DOCKED: ATOM      9  O   UNL d   1      11.689   7.436  20.896 +0.00 -0.01    -0.228 OA
DOCKED: BRANCH   8  10
DOCKED: ATOM     10  O   UNL d   1      12.635   7.738  18.520 +0.00 -0.03    -0.303 OA
DOCKED: ATOM     11  H   UNL d   1      12.068   7.231  17.909 +0.00 +0.03    +0.222 HD
DOCKED: ENDBRANCH   8  10
DOCKED: BRANCH   8  12
DOCKED: ATOM     12  O   UNL d   1      12.414   9.753  19.942 +0.00 -0.03    -0.303 OA
DOCKED: ATOM     13  H   UNL d   1      12.019  10.243  20.698 +0.00 +0.02    +0.222 HD
DOCKED: ENDBRANCH   8  12
DOCKED: ENDBRANCH   7   8
DOCKED: ENDBRANCH   1   7
DOCKED: BRANCH   2  14
DOCKED: ATOM     14  O   UNL d   1       9.405  11.180  18.748 -0.00 -0.08    -0.278 OA
DOCKED: BRANCH  14  15
DOCKED: ATOM     15  P   UNL d   1       9.895  11.882  20.101 +0.01 +0.08    +0.473 P 
DOCKED: ATOM     16  O   UNL d   1       9.093  13.050  20.582 +0.00 -0.04    -0.228 OA
DOCKED: BRANCH  15  17
DOCKED: ATOM     17  O   UNL d   1       9.947  10.691  21.158 +0.00 -0.03    -0.303 OA
DOCKED: ATOM     18  H   UNL d   1      10.410   9.914  20.790 +0.00 +0.02    +0.222 HD
DOCKED: ENDBRANCH  15  17
DOCKED: BRANCH  15  19
DOCKED: ATOM     19  O   UNL d   1      11.443  12.164  19.863 +0.00 -0.05    -0.303 OA
DOCKED: ATOM     20  H   UNL d   1      11.821  11.561  19.197 +0.00 +0.04    +0.222 HD
DOCKED: ENDBRANCH  15  19
DOCKED: ENDBRANCH  14  15
DOCKED: ENDBRANCH   2  14
DOCKED: BRANCH   6  21
DOCKED: ATOM     21  O   UNL d   1       9.149   7.391  16.739 -0.01 -0.05    -0.278 OA
DOCKED: BRANCH  21  22
DOCKED: ATOM     22  P   UNL d   1      10.316   6.882  15.779 +0.01 +0.10    +0.473 P 
DOCKED: ATOM     23  O   UNL d   1      11.716   6.915  16.292 +0.00 -0.04    -0.228 OA
DOCKED: BRANCH  22  24
DOCKED: ATOM     24  O   UNL d   1       9.791   5.437  15.365 -0.00 -0.07    -0.303 OA
DOCKED: ATOM     25  H   UNL d   1       8.923   5.547  14.898 +0.03 +0.06    +0.222 HD
DOCKED: ENDBRANCH  22  24
DOCKED: BRANCH  22  26
DOCKED: ATOM     26  O   UNL d   1      10.035   7.730  14.447 -0.01 -0.09    -0.303 OA
DOCKED: ATOM     27  H   UNL d   1       9.072   7.878  14.358 +0.04 +0.07    +0.222 HD
DOCKED: ENDBRANCH  22  26
DOCKED: ENDBRANCH  21  22
DOCKED: ENDBRANCH   6  21
DOCKED: BRANCH   3  28
DOCKED: ATOM     28  O   UNL d   1      10.073  12.823  16.773 +0.00 -0.39    -0.278 OA
DOCKED: BRANCH  28  29
DOCKED: ATOM     29  P   UNL d   1      11.338  13.760  17.013 -0.03 +0.41    +0.473 P 
DOCKED: ATOM     30  O   UNL d   1      11.726  14.619  15.864 -0.21 -0.25    -0.228 OA
DOCKED: BRANCH  29  31
DOCKED: ATOM     31  O   UNL d   1      10.883  14.504  18.355 -0.02 -0.16    -0.303 OA
DOCKED: ATOM     32  H   UNL d   1      10.436  13.850  18.940 +0.01 +0.09    +0.222 HD
DOCKED: ENDBRANCH  29  31
DOCKED: BRANCH  29  33
DOCKED: ATOM     33  O   UNL d   1      12.427  12.724  17.537 -0.00 -0.11    -0.303 OA
DOCKED: ATOM     34  H   UNL d   1      12.769  13.032  18.411 +0.01 +0.06    +0.222 HD
DOCKED: ENDBRANCH  29  33
DOCKED: ENDBRANCH  28  29
DOCKED: ENDBRANCH   3  28
DOCKED: BRANCH   5  35
DOCKED: ATOM     35  O   UNL d   1       7.416   9.297  15.363 -0.08 -0.08    -0.278 OA
DOCKED: BRANCH  35  36
DOCKED: ATOM     36  P   UNL d   1       7.022   8.543  14.014 -0.13 +0.12    +0.473 P 
DOCKED: ATOM     37  O   UNL d   1       5.638   8.804  13.510 -0.34 -0.03    -0.228 OA
DOCKED: BRANCH  36  38
DOCKED: ATOM     38  O   UNL d   1       8.178   9.016  13.026 -0.10 -0.11    -0.303 OA
DOCKED: ATOM     39  H   UNL d   1       8.884   9.457  13.546 +0.05 +0.10    +0.222 HD
DOCKED: ENDBRANCH  36  38
DOCKED: BRANCH  36  40
DOCKED: ATOM     40  O   UNL d   1       7.396   7.033  14.347 -0.08 -0.07    -0.303 OA
DOCKED: ATOM     41  H   UNL d   1       8.125   6.975  15.004 +0.04 +0.05    +0.222 HD
DOCKED: ENDBRANCH  36  40
DOCKED: ENDBRANCH  35  36
DOCKED: ENDBRANCH   5  35
DOCKED: BRANCH   4  42
DOCKED: ATOM     42  O   UNL d   1       9.111  11.472  14.420 -0.64 -0.44    -0.278 OA
DOCKED: BRANCH  42  43
DOCKED: ATOM     43  P   UNL d   1      10.484  11.225  13.646 -0.10 +0.40    +0.473 P 
DOCKED: ATOM     44  O   UNL d   1      11.400  10.182  14.188 -0.03 -0.10    -0.228 OA
DOCKED: BRANCH  43  45
DOCKED: ATOM     45  O   UNL d   1      10.000  10.954  12.155 -0.09 -0.17    -0.303 OA
DOCKED: ATOM     46  H   UNL d   1       9.789  10.010  12.012 +0.05 +0.10    +0.222 HD
DOCKED: ENDBRANCH  43  45
DOCKED: BRANCH  43  47
DOCKED: ATOM     47  O   UNL d   1      11.106  12.697  13.525 -0.26 -0.38    -0.303 OA
DOCKED: ATOM     48  H   UNL d   1      11.278  13.050  14.423 +0.01 +0.36    +0.222 HD
DOCKED: ENDBRANCH  43  47
DOCKED: ENDBRANCH  42  43
DOCKED: ENDBRANCH   4  42
DOCKED: TORSDOF 24
DOCKED: TER
DOCKED: ENDMDL
________________________________________________________________________________


	BEGINNING GENETIC ALGORITHM DOCKING 27 of 100
Run: 27 Seed: 1585418891 1350029180 [ Run 27 of 100 GA/GALS ]
Beginning LAMARCKIAN GENETIC ALGORITHM (LGA), with a maximum of 25000000 energy evaluations.

Final-Value: -17.982


	FINAL GENETIC ALGORITHM DOCKED STATE
	_______________________________________________


Detailed state:  trans 14.872 2.515 9.414 quatxyzw 0.492831 0.541854 0.436331 -0.522615 center 0.035 0.082 -0.065 ntor 24 71.7473 87.2250 180.0000 -40.7667 104.0975 180.0000 -111.9511 -25.7424 -4.4359 16.5153 87.8564 131.5268 -30.3934 170.4928 117.3259 -145.3616 -144.9370 -116.6544 -172.4432 20.8912 -35.1208 8.4952 159.4458 -6.1950
State:	 14.872   2.515   9.414   0.578  0.636  0.512 -116.984     71.75   87.23  180.00  -40.77  104.10  180.00 -111.95  -25.74   -4.44   16.52   87.86  131.53  -30.39  170.49  117.33 -145.36 -144.94 -116.65 -172.44   20.89  -35.12    8.50  159.45   -6.19

DOCKED: MODEL       27
DOCKED: USER    Run = 27
DOCKED: USER    DPF = D:/Protein_go_brrr/autodock/final/mut_Y35F/IHP/dock.dpf
DOCKED: USER  
DOCKED: USER    Estimated Free Energy of Binding    =   +3.83 kcal/mol  [=(1)+(2)+(3)-(4)]
DOCKED: USER    
DOCKED: USER    (1) Final Intermolecular Energy     =   -3.33 kcal/mol
DOCKED: USER        vdW + Hbond + desolv Energy     =   -3.10 kcal/mol
DOCKED: USER        Electrostatic Energy            =   -0.23 kcal/mol
DOCKED: USER    (2) Final Total Internal Energy     =  -14.65 kcal/mol
DOCKED: USER    (3) Torsional Free Energy           =   +7.16 kcal/mol
DOCKED: USER    (4) Unbound System's Energy  [=(2)] =  -14.65 kcal/mol
DOCKED: USER    
DOCKED: USER    
DOCKED: USER    NEWDPF move IHP_ideal_opt.pdbqt
DOCKED: USER    NEWDPF about 0.035000 0.082000 -0.065000
DOCKED: USER    NEWDPF tran0 14.872118 2.515322 9.413905
DOCKED: USER    NEWDPF quaternion0 0.492831 0.541854 0.436331 -0.522615
DOCKED: USER    NEWDPF axisangle0 0.578055 0.635555 0.511784 -116.984380
DOCKED: USER    NEWDPF quat0 0.578055 0.635555 0.511784 -116.984380
DOCKED: USER    NEWDPF dihe0 71.75 87.23 180.00 -40.77 104.10 180.00 -111.95 -25.74 -4.44 16.52 87.86 131.53 -30.39 170.49 117.33 -145.36 -144.94 -116.65 -172.44 20.89 -35.12 8.50 159.45 -6.19 
DOCKED: USER  keepresnum = 1 
DOCKED: USER  
DOCKED: REMARK  24 active torsions:
DOCKED: REMARK  status: ('A' for Active; 'I' for Inactive)
DOCKED: REMARK    1  A    between atoms: C_1  and  O_7 
DOCKED: REMARK    2  A    between atoms: C_2  and  O_12 
DOCKED: REMARK    3  A    between atoms: C_3  and  O_17 
DOCKED: REMARK    4  A    between atoms: C_4  and  O_22 
DOCKED: REMARK    5  A    between atoms: C_5  and  O_27 
DOCKED: REMARK    6  A    between atoms: C_6  and  O_32 
DOCKED: REMARK    7  A    between atoms: O_7  and  P_8 
DOCKED: REMARK    8  A    between atoms: P_8  and  O_10 
DOCKED: REMARK    9  A    between atoms: P_8  and  O_11 
DOCKED: REMARK   10  A    between atoms: O_12  and  P_13 
DOCKED: REMARK   11  A    between atoms: P_13  and  O_15 
DOCKED: REMARK   12  A    between atoms: P_13  and  O_16 
DOCKED: REMARK   13  A    between atoms: O_17  and  P_18 
DOCKED: REMARK   14  A    between atoms: P_18  and  O_20 
DOCKED: REMARK   15  A    between atoms: P_18  and  O_21 
DOCKED: REMARK   16  A    between atoms: O_22  and  P_23 
DOCKED: REMARK   17  A    between atoms: P_23  and  O_25 
DOCKED: REMARK   18  A    between atoms: P_23  and  O_26 
DOCKED: REMARK   19  A    between atoms: O_27  and  P_28 
DOCKED: REMARK   20  A    between atoms: P_28  and  O_30 
DOCKED: REMARK   21  A    between atoms: P_28  and  O_31 
DOCKED: REMARK   22  A    between atoms: O_32  and  P_33 
DOCKED: REMARK   23  A    between atoms: P_33  and  O_35 
DOCKED: REMARK   24  A    between atoms: P_33  and  O_36 
DOCKED: USER                              x       y       z     vdW  Elec       q    Type
DOCKED: USER                           _______ _______ _______ _____ _____    ______ ____
DOCKED: ROOT
DOCKED: ATOM      1  C   UNL d   1      15.631   3.604   8.308 -0.02 +0.07    +0.194 C 
DOCKED: ATOM      2  C   UNL d   1      15.161   2.277   7.711 -0.06 +0.07    +0.194 C 
DOCKED: ATOM      3  C   UNL d   1      15.495   1.095   8.623 -0.03 +0.05    +0.194 C 
DOCKED: ATOM      4  C   UNL d   1      15.009   1.287  10.058 -0.02 +0.06    +0.194 C 
DOCKED: ATOM      5  C   UNL d   1      15.357   2.644  10.655 -0.01 +0.06    +0.194 C 
DOCKED: ATOM      6  C   UNL d   1      15.080   3.822   9.718 -0.02 +0.08    +0.194 C 
DOCKED: ENDROOT
DOCKED: BRANCH   1   7
DOCKED: ATOM      7  O   UNL d   1      15.133   4.664   7.488 -0.02 -0.11    -0.278 OA
DOCKED: BRANCH   7   8
DOCKED: ATOM      8  P   UNL d   1      13.553   4.883   7.407 -0.09 +0.32    +0.473 P 
DOCKED: ATOM      9  O   UNL d   1      12.778   4.309   8.541 -0.31 -0.36    -0.228 OA
DOCKED: BRANCH   8  10
DOCKED: ATOM     10  O   UNL d   1      13.388   6.464   7.269 -0.04 -0.15    -0.303 OA
DOCKED: ATOM     11  H   UNL d   1      13.380   6.870   8.156 +0.03 +0.11    +0.222 HD
DOCKED: ENDBRANCH   8  10
DOCKED: BRANCH   8  12
DOCKED: ATOM     12  O   UNL d   1      13.140   4.378   5.958 -0.73 -0.20    -0.303 OA
DOCKED: ATOM     13  H   UNL d   1      13.592   3.545   5.696 +0.10 +0.11    +0.222 HD
DOCKED: ENDBRANCH   8  12
DOCKED: ENDBRANCH   7   8
DOCKED: ENDBRANCH   1   7
DOCKED: BRANCH   2  14
DOCKED: ATOM     14  O   UNL d   1      13.740   2.325   7.527 -0.12 -0.16    -0.278 OA
DOCKED: BRANCH  14  15
DOCKED: ATOM     15  P   UNL d   1      13.139   1.411   6.357 -0.25 +0.19    +0.473 P 
DOCKED: ATOM     16  O   UNL d   1      12.136   2.054   5.451 -0.41 -0.12    -0.228 OA
DOCKED: BRANCH  15  17
DOCKED: ATOM     17  O   UNL d   1      14.424   0.882   5.579 -0.19 -0.08    -0.303 OA
DOCKED: ATOM     18  H   UNL d   1      14.795   0.089   6.011 +0.10 +0.05    +0.222 HD
DOCKED: ENDBRANCH  15  17
DOCKED: BRANCH  15  19
DOCKED: ATOM     19  O   UNL d   1      12.647   0.092   7.097 -0.25 -0.10    -0.303 OA
DOCKED: ATOM     20  H   UNL d   1      13.287  -0.638   6.996 +0.07 +0.04    +0.222 HD
DOCKED: ENDBRANCH  15  19
DOCKED: ENDBRANCH  14  15
DOCKED: ENDBRANCH   2  14
DOCKED: BRANCH   6  21
DOCKED: ATOM     21  O   UNL d   1      15.760   4.951  10.263 +0.00 -0.08    -0.278 OA
DOCKED: BRANCH  21  22
DOCKED: ATOM     22  P   UNL d   1      15.037   6.372  10.294 +0.01 +0.16    +0.473 P 
DOCKED: ATOM     23  O   UNL d   1      15.348   7.297  11.421 +0.00 -0.05    -0.228 OA
DOCKED: BRANCH  22  24
DOCKED: ATOM     24  O   UNL d   1      15.378   6.942   8.848 +0.01 -0.09    -0.303 OA
DOCKED: ATOM     25  H   UNL d   1      15.338   6.191   8.202 +0.02 +0.07    +0.222 HD
DOCKED: ENDBRANCH  22  24
DOCKED: BRANCH  22  26
DOCKED: ATOM     26  O   UNL d   1      13.497   5.957  10.130 -0.03 -0.21    -0.303 OA
DOCKED: ATOM     27  H   UNL d   1      13.422   4.981  10.155 +0.01 +0.21    +0.222 HD
DOCKED: ENDBRANCH  22  26
DOCKED: ENDBRANCH  21  22
DOCKED: ENDBRANCH   6  21
DOCKED: BRANCH   3  28
DOCKED: ATOM     28  O   UNL d   1      14.787  -0.038   8.134 -0.05 -0.07    -0.278 OA
DOCKED: BRANCH  28  29
DOCKED: ATOM     29  P   UNL d   1      15.579  -1.331   7.646 -0.04 +0.09    +0.473 P 
DOCKED: ATOM     30  O   UNL d   1      14.757  -2.368   6.971 -0.15 -0.05    -0.228 OA
DOCKED: BRANCH  29  31
DOCKED: ATOM     31  O   UNL d   1      16.733  -0.641   6.778 -0.05 -0.05    -0.303 OA
DOCKED: ATOM     32  H   UNL d   1      16.313  -0.129   6.048 +0.07 +0.05    +0.222 HD
DOCKED: ENDBRANCH  29  31
DOCKED: BRANCH  29  33
DOCKED: ATOM     33  O   UNL d   1      16.349  -1.770   8.968 -0.01 -0.05    -0.303 OA
DOCKED: ATOM     34  H   UNL d   1      15.789  -1.552   9.753 +0.02 +0.04    +0.222 HD
DOCKED: ENDBRANCH  29  33
DOCKED: ENDBRANCH  28  29
DOCKED: ENDBRANCH   3  28
DOCKED: BRANCH   5  35
DOCKED: ATOM     35  O   UNL d   1      14.504   2.799  11.787 -0.01 -0.11    -0.278 OA
DOCKED: BRANCH  35  36
DOCKED: ATOM     36  P   UNL d   1      12.937   3.023  11.590 -0.04 +0.41    +0.473 P 
DOCKED: ATOM     37  O   UNL d   1      12.466   4.437  11.720 -0.13 -0.25    -0.228 OA
DOCKED: BRANCH  36  38
DOCKED: ATOM     38  O   UNL d   1      12.695   2.383  10.152 -0.50 -0.40    -0.303 OA
DOCKED: ATOM     39  H   UNL d   1      13.048   2.990   9.466 +0.02 +0.31    +0.222 HD
DOCKED: ENDBRANCH  36  38
DOCKED: BRANCH  36  40
DOCKED: ATOM     40  O   UNL d   1      12.312   1.959  12.593 -0.04 -0.16    -0.303 OA
DOCKED: ATOM     41  H   UNL d   1      12.927   1.210  12.759 +0.01 +0.08    +0.222 HD
DOCKED: ENDBRANCH  36  40
DOCKED: ENDBRANCH  35  36
DOCKED: ENDBRANCH   5  35
DOCKED: BRANCH   4  42
DOCKED: ATOM     42  O   UNL d   1      15.666   0.295  10.855 -0.00 -0.05    -0.278 OA
DOCKED: BRANCH  42  43
DOCKED: ATOM     43  P   UNL d   1      14.785  -0.809  11.594 +0.00 +0.08    +0.473 P 
DOCKED: ATOM     44  O   UNL d   1      13.954  -0.366  12.748 -0.01 -0.04    -0.228 OA
DOCKED: BRANCH  43  45
DOCKED: ATOM     45  O   UNL d   1      13.950  -1.447  10.398 -0.01 -0.06    -0.303 OA
DOCKED: ATOM     46  H   UNL d   1      14.325  -1.202   9.529 +0.04 +0.05    +0.222 HD
DOCKED: ENDBRANCH  43  45
DOCKED: BRANCH  43  47
DOCKED: ATOM     47  O   UNL d   1      15.842  -1.972  11.909 +0.00 -0.03    -0.303 OA
DOCKED: ATOM     48  H   UNL d   1      16.345  -2.180  11.094 +0.00 +0.03    +0.222 HD
DOCKED: ENDBRANCH  43  47
DOCKED: ENDBRANCH  42  43
DOCKED: ENDBRANCH   4  42
DOCKED: TORSDOF 24
DOCKED: TER
DOCKED: ENDMDL
________________________________________________________________________________


	BEGINNING GENETIC ALGORITHM DOCKING 28 of 100
Run: 28 Seed: 761008483 2005306191 [ Run 28 of 100 GA/GALS ]
Beginning LAMARCKIAN GENETIC ALGORITHM (LGA), with a maximum of 25000000 energy evaluations.

Final-Value: -18.070


	FINAL GENETIC ALGORITHM DOCKED STATE
	_______________________________________________


Detailed state:  trans -17.383 -7.719 12.895 quatxyzw -0.025722 0.575839 0.489409 -0.654390 center 0.035 0.082 -0.065 ntor 24 116.4563 47.0416 9.4011 90.9842 -8.8785 100.3393 -101.9190 -29.6834 95.4922 -35.4864 -121.3704 179.9220 168.0234 -83.9238 -180.0000 -180.0000 -180.0000 159.5329 54.7547 10.7733 177.9063 -10.4191 16.1904 -180.0000
State:	-17.383  -7.719  12.895  -0.034  0.762  0.647 -98.253    116.46   47.04    9.40   90.98   -8.88  100.34 -101.92  -29.68   95.49  -35.49 -121.37  179.92  168.02  -83.92 -180.00 -180.00 -180.00  159.53   54.75   10.77  177.91  -10.42   16.19 -180.00

DOCKED: MODEL       28
DOCKED: USER    Run = 28
DOCKED: USER    DPF = D:/Protein_go_brrr/autodock/final/mut_Y35F/IHP/dock.dpf
DOCKED: USER  
DOCKED: USER    Estimated Free Energy of Binding    =   +1.98 kcal/mol  [=(1)+(2)+(3)-(4)]
DOCKED: USER    
DOCKED: USER    (1) Final Intermolecular Energy     =   -5.18 kcal/mol
DOCKED: USER        vdW + Hbond + desolv Energy     =   -4.36 kcal/mol
DOCKED: USER        Electrostatic Energy            =   -0.82 kcal/mol
DOCKED: USER    (2) Final Total Internal Energy     =  -12.89 kcal/mol
DOCKED: USER    (3) Torsional Free Energy           =   +7.16 kcal/mol
DOCKED: USER    (4) Unbound System's Energy  [=(2)] =  -12.89 kcal/mol
DOCKED: USER    
DOCKED: USER    
DOCKED: USER    NEWDPF move IHP_ideal_opt.pdbqt
DOCKED: USER    NEWDPF about 0.035000 0.082000 -0.065000
DOCKED: USER    NEWDPF tran0 -17.383370 -7.719147 12.895324
DOCKED: USER    NEWDPF quaternion0 -0.025722 0.575839 0.489409 -0.654390
DOCKED: USER    NEWDPF axisangle0 -0.034017 0.761534 0.647232 -98.253137
DOCKED: USER    NEWDPF quat0 -0.034017 0.761534 0.647232 -98.253137
DOCKED: USER    NEWDPF dihe0 116.46 47.04 9.40 90.98 -8.88 100.34 -101.92 -29.68 95.49 -35.49 -121.37 179.92 168.02 -83.92 -180.00 -180.00 -180.00 159.53 54.75 10.77 177.91 -10.42 16.19 -180.00 
DOCKED: USER  keepresnum = 1 
DOCKED: USER  
DOCKED: REMARK  24 active torsions:
DOCKED: REMARK  status: ('A' for Active; 'I' for Inactive)
DOCKED: REMARK    1  A    between atoms: C_1  and  O_7 
DOCKED: REMARK    2  A    between atoms: C_2  and  O_12 
DOCKED: REMARK    3  A    between atoms: C_3  and  O_17 
DOCKED: REMARK    4  A    between atoms: C_4  and  O_22 
DOCKED: REMARK    5  A    between atoms: C_5  and  O_27 
DOCKED: REMARK    6  A    between atoms: C_6  and  O_32 
DOCKED: REMARK    7  A    between atoms: O_7  and  P_8 
DOCKED: REMARK    8  A    between atoms: P_8  and  O_10 
DOCKED: REMARK    9  A    between atoms: P_8  and  O_11 
DOCKED: REMARK   10  A    between atoms: O_12  and  P_13 
DOCKED: REMARK   11  A    between atoms: P_13  and  O_15 
DOCKED: REMARK   12  A    between atoms: P_13  and  O_16 
DOCKED: REMARK   13  A    between atoms: O_17  and  P_18 
DOCKED: REMARK   14  A    between atoms: P_18  and  O_20 
DOCKED: REMARK   15  A    between atoms: P_18  and  O_21 
DOCKED: REMARK   16  A    between atoms: O_22  and  P_23 
DOCKED: REMARK   17  A    between atoms: P_23  and  O_25 
DOCKED: REMARK   18  A    between atoms: P_23  and  O_26 
DOCKED: REMARK   19  A    between atoms: O_27  and  P_28 
DOCKED: REMARK   20  A    between atoms: P_28  and  O_30 
DOCKED: REMARK   21  A    between atoms: P_28  and  O_31 
DOCKED: REMARK   22  A    between atoms: O_32  and  P_33 
DOCKED: REMARK   23  A    between atoms: P_33  and  O_35 
DOCKED: REMARK   24  A    between atoms: P_33  and  O_36 
DOCKED: USER                              x       y       z     vdW  Elec       q    Type
DOCKED: USER                           _______ _______ _______ _____ _____    ______ ____
DOCKED: ROOT
DOCKED: ATOM      1  C   UNL d   1     -16.390  -6.943  11.714 -0.09 -0.07    +0.194 C 
DOCKED: ATOM      2  C   UNL d   1     -15.943  -8.343  12.136 -0.09 -0.01    +0.194 C 
DOCKED: ATOM      3  C   UNL d   1     -16.046  -8.539  13.650 -0.04 -0.02    +0.194 C 
DOCKED: ATOM      4  C   UNL d   1     -17.419  -8.178  14.211 -0.00 -0.02    +0.194 C 
DOCKED: ATOM      5  C   UNL d   1     -17.956  -6.838  13.724 -0.01 -0.04    +0.194 C 
DOCKED: ATOM      6  C   UNL d   1     -17.797  -6.617  12.219 -0.03 -0.04    +0.194 C 
DOCKED: ENDROOT
DOCKED: BRANCH   1   7
DOCKED: ATOM      7  O   UNL d   1     -16.429  -6.898  10.286 -0.11 +0.07    -0.278 OA
DOCKED: BRANCH   7   8
DOCKED: ATOM      8  P   UNL d   1     -15.049  -6.991   9.486 -0.24 -0.08    +0.473 P 
DOCKED: ATOM      9  O   UNL d   1     -14.948  -6.102   8.297 -0.89 +0.02    -0.228 OA
DOCKED: BRANCH   8  10
DOCKED: ATOM     10  O   UNL d   1     -13.940  -6.690  10.592 -0.37 +0.15    -0.303 OA
DOCKED: ATOM     11  H   UNL d   1     -14.240  -5.961  11.166 -0.48 -0.46    +0.222 HD
DOCKED: ENDBRANCH   8  10
DOCKED: BRANCH   8  12
DOCKED: ATOM     12  O   UNL d   1     -14.834  -8.542   9.213 -0.26 -0.06    -0.303 OA
DOCKED: ATOM     13  H   UNL d   1     -15.572  -9.099   9.549 +0.10 +0.03    +0.222 HD
DOCKED: ENDBRANCH   8  12
DOCKED: ENDBRANCH   7   8
DOCKED: ENDBRANCH   1   7
DOCKED: BRANCH   2  14
DOCKED: ATOM     14  O   UNL d   1     -16.778  -9.314  11.493 -0.04 -0.01    -0.278 OA
DOCKED: BRANCH  14  15
DOCKED: ATOM     15  P   UNL d   1     -16.062 -10.660  11.001 -0.11 +0.10    +0.473 P 
DOCKED: ATOM     16  O   UNL d   1     -14.613 -10.557  10.640 -0.16 -0.16    -0.228 OA
DOCKED: BRANCH  15  17
DOCKED: ATOM     17  O   UNL d   1     -16.334 -11.696  12.180 -0.03 -0.05    -0.303 OA
DOCKED: ATOM     18  H   UNL d   1     -15.653 -11.624  12.875 +0.03 +0.05    +0.222 HD
DOCKED: ENDBRANCH  15  17
DOCKED: BRANCH  15  19
DOCKED: ATOM     19  O   UNL d   1     -17.016 -11.220   9.857 -0.17 -0.02    -0.303 OA
DOCKED: ATOM     20  H   UNL d   1     -17.467 -10.500   9.379 +0.07 -0.00    +0.222 HD
DOCKED: ENDBRANCH  15  19
DOCKED: ENDBRANCH  14  15
DOCKED: ENDBRANCH   2  14
DOCKED: BRANCH   6  21
DOCKED: ATOM     21  O   UNL d   1     -18.016  -5.229  11.980 -0.04 +0.07    -0.278 OA
DOCKED: BRANCH  21  22
DOCKED: ATOM     22  P   UNL d   1     -16.882  -4.172  12.359 -0.09 -0.26    +0.473 P 
DOCKED: ATOM     23  O   UNL d   1     -17.304  -2.798  12.757 -0.15 +0.07    -0.228 OA
DOCKED: BRANCH  22  24
DOCKED: ATOM     24  O   UNL d   1     -16.056  -4.963  13.466 -0.08 +0.29    -0.303 OA
DOCKED: ATOM     25  H   UNL d   1     -16.584  -4.962  14.304 +0.04 -0.11    +0.222 HD
DOCKED: ENDBRANCH  22  24
DOCKED: BRANCH  22  26
DOCKED: ATOM     26  O   UNL d   1     -15.910  -4.268  11.088 -0.13 +0.29    -0.303 OA
DOCKED: ATOM     27  H   UNL d   1     -15.407  -5.107  11.131 -0.37 -0.33    +0.222 HD
DOCKED: ENDBRANCH  22  26
DOCKED: ENDBRANCH  21  22
DOCKED: ENDBRANCH   6  21
DOCKED: BRANCH   3  28
DOCKED: ATOM     28  O   UNL d   1     -15.883  -9.926  13.915 -0.01 -0.03    -0.278 OA
DOCKED: BRANCH  28  29
DOCKED: ATOM     29  P   UNL d   1     -14.480 -10.490  14.418 -0.03 +0.13    +0.473 P 
DOCKED: ATOM     30  O   UNL d   1     -14.541 -11.742  15.214 -0.00 -0.03    -0.228 OA
DOCKED: BRANCH  29  31
DOCKED: ATOM     31  O   UNL d   1     -13.690 -10.550  13.028 -0.58 -0.40    -0.303 OA
DOCKED: ATOM     32  H   UNL d   1     -14.249 -11.023  12.369 +0.03 +0.20    +0.222 HD
DOCKED: ENDBRANCH  29  31
DOCKED: BRANCH  29  33
DOCKED: ATOM     33  O   UNL d   1     -13.844  -9.215  15.129 -0.05 -0.01    -0.303 OA
DOCKED: ATOM     34  H   UNL d   1     -14.572  -8.649  15.485 +0.02 -0.03    +0.222 HD
DOCKED: ENDBRANCH  29  33
DOCKED: ENDBRANCH  28  29
DOCKED: ENDBRANCH   3  28
DOCKED: BRANCH   5  35
DOCKED: ATOM     35  O   UNL d   1     -19.355  -6.859  14.000 +0.00 +0.03    -0.278 OA
DOCKED: BRANCH  35  36
DOCKED: ATOM     36  P   UNL d   1     -20.118  -5.513  14.390 +0.01 -0.03    +0.473 P 
DOCKED: ATOM     37  O   UNL d   1     -21.071  -5.622  15.538 +0.00 +0.01    -0.228 OA
DOCKED: BRANCH  36  38
DOCKED: ATOM     38  O   UNL d   1     -18.906  -4.511  14.639 -0.01 +0.04    -0.303 OA
DOCKED: ATOM     39  H   UNL d   1     -18.127  -4.815  14.124 +0.03 -0.05    +0.222 HD
DOCKED: ENDBRANCH  36  38
DOCKED: BRANCH  36  40
DOCKED: ATOM     40  O   UNL d   1     -20.720  -5.046  12.994 -0.00 +0.02    -0.303 OA
DOCKED: ATOM     41  H   UNL d   1     -20.035  -4.635  12.422 +0.03 -0.02    +0.222 HD
DOCKED: ENDBRANCH  36  40
DOCKED: ENDBRANCH  35  36
DOCKED: ENDBRANCH   5  35
DOCKED: BRANCH   4  42
DOCKED: ATOM     42  O   UNL d   1     -17.275  -8.083  15.632 +0.00 +0.03    -0.278 OA
DOCKED: BRANCH  42  43
DOCKED: ATOM     43  P   UNL d   1     -16.424  -6.879  16.242 -0.01 -0.10    +0.473 P 
DOCKED: ATOM     44  O   UNL d   1     -15.805  -7.085  17.581 -0.01 +0.03    -0.228 OA
DOCKED: BRANCH  43  45
DOCKED: ATOM     45  O   UNL d   1     -15.378  -6.570  15.083 -0.08 +0.18    -0.303 OA
DOCKED: ATOM     46  H   UNL d   1     -14.935  -5.708  15.221 +0.03 -0.19    +0.222 HD
DOCKED: ENDBRANCH  43  45
DOCKED: BRANCH  43  47
DOCKED: ATOM     47  O   UNL d   1     -17.420  -5.629  16.124 -0.01 +0.05    -0.303 OA
DOCKED: ATOM     48  H   UNL d   1     -18.256  -5.921  15.705 +0.01 -0.03    +0.222 HD
DOCKED: ENDBRANCH  43  47
DOCKED: ENDBRANCH  42  43
DOCKED: ENDBRANCH   4  42
DOCKED: TORSDOF 24
DOCKED: TER
DOCKED: ENDMDL
________________________________________________________________________________


	BEGINNING GENETIC ALGORITHM DOCKING 29 of 100
Run: 29 Seed: 286209381 1518782287 [ Run 29 of 100 GA/GALS ]
Beginning LAMARCKIAN GENETIC ALGORITHM (LGA), with a maximum of 25000000 energy evaluations.

Final-Value: -17.891


	FINAL GENETIC ALGORITHM DOCKED STATE
	_______________________________________________


Detailed state:  trans -2.876 2.519 18.676 quatxyzw -0.641323 -0.690575 0.112602 -0.314852 center 0.035 0.082 -0.065 ntor 24 104.3021 133.6213 89.2782 79.7935 135.0850 74.5985 -134.6188 -101.8709 104.6361 -3.2247 8.4187 175.8894 153.6773 112.4223 93.4547 45.6230 -177.9606 152.6932 23.1388 -9.9362 -49.5730 13.6288 25.6502 -20.6252
State:	 -2.876   2.519  18.676  -0.676 -0.728  0.119 -143.296    104.30  133.62   89.28   79.79  135.09   74.60 -134.62 -101.87  104.64   -3.22    8.42  175.89  153.68  112.42   93.45   45.62 -177.96  152.69   23.14   -9.94  -49.57   13.63   25.65  -20.63

DOCKED: MODEL       29
DOCKED: USER    Run = 29
DOCKED: USER    DPF = D:/Protein_go_brrr/autodock/final/mut_Y35F/IHP/dock.dpf
DOCKED: USER  
DOCKED: USER    Estimated Free Energy of Binding    =   +2.29 kcal/mol  [=(1)+(2)+(3)-(4)]
DOCKED: USER    
DOCKED: USER    (1) Final Intermolecular Energy     =   -4.87 kcal/mol
DOCKED: USER        vdW + Hbond + desolv Energy     =   -4.80 kcal/mol
DOCKED: USER        Electrostatic Energy            =   -0.06 kcal/mol
DOCKED: USER    (2) Final Total Internal Energy     =  -13.03 kcal/mol
DOCKED: USER    (3) Torsional Free Energy           =   +7.16 kcal/mol
DOCKED: USER    (4) Unbound System's Energy  [=(2)] =  -13.03 kcal/mol
DOCKED: USER    
DOCKED: USER    
DOCKED: USER    NEWDPF move IHP_ideal_opt.pdbqt
DOCKED: USER    NEWDPF about 0.035000 0.082000 -0.065000
DOCKED: USER    NEWDPF tran0 -2.875613 2.518714 18.675703
DOCKED: USER    NEWDPF quaternion0 -0.641323 -0.690575 0.112602 -0.314852
DOCKED: USER    NEWDPF axisangle0 -0.675688 -0.727579 0.118636 -143.296282
DOCKED: USER    NEWDPF quat0 -0.675688 -0.727579 0.118636 -143.296282
DOCKED: USER    NEWDPF dihe0 104.30 133.62 89.28 79.79 135.09 74.60 -134.62 -101.87 104.64 -3.22 8.42 175.89 153.68 112.42 93.45 45.62 -177.96 152.69 23.14 -9.94 -49.57 13.63 25.65 -20.63 
DOCKED: USER  keepresnum = 1 
DOCKED: USER  
DOCKED: REMARK  24 active torsions:
DOCKED: REMARK  status: ('A' for Active; 'I' for Inactive)
DOCKED: REMARK    1  A    between atoms: C_1  and  O_7 
DOCKED: REMARK    2  A    between atoms: C_2  and  O_12 
DOCKED: REMARK    3  A    between atoms: C_3  and  O_17 
DOCKED: REMARK    4  A    between atoms: C_4  and  O_22 
DOCKED: REMARK    5  A    between atoms: C_5  and  O_27 
DOCKED: REMARK    6  A    between atoms: C_6  and  O_32 
DOCKED: REMARK    7  A    between atoms: O_7  and  P_8 
DOCKED: REMARK    8  A    between atoms: P_8  and  O_10 
DOCKED: REMARK    9  A    between atoms: P_8  and  O_11 
DOCKED: REMARK   10  A    between atoms: O_12  and  P_13 
DOCKED: REMARK   11  A    between atoms: P_13  and  O_15 
DOCKED: REMARK   12  A    between atoms: P_13  and  O_16 
DOCKED: REMARK   13  A    between atoms: O_17  and  P_18 
DOCKED: REMARK   14  A    between atoms: P_18  and  O_20 
DOCKED: REMARK   15  A    between atoms: P_18  and  O_21 
DOCKED: REMARK   16  A    between atoms: O_22  and  P_23 
DOCKED: REMARK   17  A    between atoms: P_23  and  O_25 
DOCKED: REMARK   18  A    between atoms: P_23  and  O_26 
DOCKED: REMARK   19  A    between atoms: O_27  and  P_28 
DOCKED: REMARK   20  A    between atoms: P_28  and  O_30 
DOCKED: REMARK   21  A    between atoms: P_28  and  O_31 
DOCKED: REMARK   22  A    between atoms: O_32  and  P_33 
DOCKED: REMARK   23  A    between atoms: P_33  and  O_35 
DOCKED: REMARK   24  A    between atoms: P_33  and  O_36 
DOCKED: USER                              x       y       z     vdW  Elec       q    Type
DOCKED: USER                           _______ _______ _______ _____ _____    ______ ____
DOCKED: ROOT
DOCKED: ATOM      1  C   UNL d   1      -4.031   3.779  18.922 -0.09 -0.01    +0.194 C 
DOCKED: ATOM      2  C   UNL d   1      -4.499   2.371  19.296 -0.14 +0.00    +0.194 C 
DOCKED: ATOM      3  C   UNL d   1      -4.081   1.338  18.247 -0.20 -0.01    +0.194 C 
DOCKED: ATOM      4  C   UNL d   1      -2.591   1.383  17.919 -0.18 -0.02    +0.194 C 
DOCKED: ATOM      5  C   UNL d   1      -2.057   2.785  17.651 +0.11 -0.05    +0.194 C 
DOCKED: ATOM      6  C   UNL d   1      -2.525   3.830  18.666 -0.08 -0.03    +0.194 C 
DOCKED: ENDROOT
DOCKED: BRANCH   1   7
DOCKED: ATOM      7  O   UNL d   1      -4.306   4.647  20.024 -0.05 +0.00    -0.278 OA
DOCKED: BRANCH   7   8
DOCKED: ATOM      8  P   UNL d   1      -5.615   5.560  19.963 -0.03 +0.01    +0.473 P 
DOCKED: ATOM      9  O   UNL d   1      -5.555   6.804  20.778 -0.01 -0.00    -0.228 OA
DOCKED: BRANCH   8  10
DOCKED: ATOM     10  O   UNL d   1      -5.821   5.838  18.406 -0.12 -0.03    -0.303 OA
DOCKED: ATOM     11  H   UNL d   1      -4.999   6.203  18.028 +0.05 +0.01    +0.222 HD
DOCKED: ENDBRANCH   8  10
DOCKED: BRANCH   8  12
DOCKED: ATOM     12  O   UNL d   1      -6.820   4.576  20.288 -0.05 -0.02    -0.303 OA
DOCKED: ATOM     13  H   UNL d   1      -7.009   4.503  21.250 +0.02 +0.01    +0.222 HD
DOCKED: ENDBRANCH   8  12
DOCKED: ENDBRANCH   7   8
DOCKED: ENDBRANCH   1   7
DOCKED: BRANCH   2  14
DOCKED: ATOM     14  O   UNL d   1      -3.918   2.005  20.554 -0.02 +0.00    -0.278 OA
DOCKED: BRANCH  14  15
DOCKED: ATOM     15  P   UNL d   1      -4.937   1.630  21.731 +0.01 +0.00    +0.473 P 
DOCKED: ATOM     16  O   UNL d   1      -4.351   0.984  22.947 +0.00 +0.00    -0.228 OA
DOCKED: BRANCH  15  17
DOCKED: ATOM     17  O   UNL d   1      -5.675   3.004  22.056 -0.00 -0.00    -0.303 OA
DOCKED: ATOM     18  H   UNL d   1      -5.277   3.744  21.559 +0.02 +0.00    +0.222 HD
DOCKED: ENDBRANCH  15  17
DOCKED: BRANCH  15  19
DOCKED: ATOM     19  O   UNL d   1      -6.093   0.810  21.008 -0.02 -0.01    -0.303 OA
DOCKED: ATOM     20  H   UNL d   1      -5.799   0.453  20.150 +0.04 +0.01    +0.222 HD
DOCKED: ENDBRANCH  15  19
DOCKED: ENDBRANCH  14  15
DOCKED: ENDBRANCH   2  14
DOCKED: BRANCH   6  21
DOCKED: ATOM     21  O   UNL d   1      -2.240   5.108  18.102 -0.18 +0.04    -0.278 OA
DOCKED: BRANCH  21  22
DOCKED: ATOM     22  P   UNL d   1      -1.957   6.351  19.061 -0.09 -0.04    +0.473 P 
DOCKED: ATOM     23  O   UNL d   1      -0.670   7.088  18.899 -0.15 +0.04    -0.228 OA
DOCKED: BRANCH  22  24
DOCKED: ATOM     24  O   UNL d   1      -3.263   7.234  18.843 -0.08 +0.02    -0.303 OA
DOCKED: ATOM     25  H   UNL d   1      -4.031   6.754  19.246 +0.05 -0.01    +0.222 HD
DOCKED: ENDBRANCH  22  24
DOCKED: BRANCH  22  26
DOCKED: ATOM     26  O   UNL d   1      -2.225   5.714  20.507 -0.01 +0.02    -0.303 OA
DOCKED: ATOM     27  H   UNL d   1      -3.124   5.963  20.807 +0.03 -0.01    +0.222 HD
DOCKED: ENDBRANCH  22  26
DOCKED: ENDBRANCH  21  22
DOCKED: ENDBRANCH   6  21
DOCKED: BRANCH   3  28
DOCKED: ATOM     28  O   UNL d   1      -4.306   0.049  18.802 -0.09 +0.01    -0.278 OA
DOCKED: BRANCH  28  29
DOCKED: ATOM     29  P   UNL d   1      -5.228  -1.005  18.043 -0.19 +0.01    +0.473 P 
DOCKED: ATOM     30  O   UNL d   1      -5.434  -0.748  16.594 -0.44 +0.01    -0.228 OA
DOCKED: BRANCH  29  31
DOCKED: ATOM     31  O   UNL d   1      -4.484  -2.365  18.441 -0.12 +0.03    -0.303 OA
DOCKED: ATOM     32  H   UNL d   1      -3.726  -2.499  17.827 +0.06 -0.05    +0.222 HD
DOCKED: ENDBRANCH  29  31
DOCKED: BRANCH  29  33
DOCKED: ATOM     33  O   UNL d   1      -6.529  -1.033  18.960 -0.54 -0.06    -0.303 OA
DOCKED: ATOM     34  H   UNL d   1      -6.252  -1.047  19.909 +0.05 +0.02    +0.222 HD
DOCKED: ENDBRANCH  29  33
DOCKED: ENDBRANCH  28  29
DOCKED: ENDBRANCH   3  28
DOCKED: BRANCH   5  35
DOCKED: ATOM     35  O   UNL d   1      -0.639   2.688  17.772 -0.12 +0.04    -0.278 OA
DOCKED: BRANCH  35  36
DOCKED: ATOM     36  P   UNL d   1       0.305   3.745  17.039 -0.18 -0.04    +0.473 P 
DOCKED: ATOM     37  O   UNL d   1       1.464   3.165  16.293 -0.16 +0.03    -0.228 OA
DOCKED: BRANCH  36  38
DOCKED: ATOM     38  O   UNL d   1      -0.735   4.531  16.125 -0.93 -0.01    -0.303 OA
DOCKED: ATOM     39  H   UNL d   1      -1.593   4.596  16.596 -0.41 -0.05    +0.222 HD
DOCKED: ENDBRANCH  36  38
DOCKED: BRANCH  36  40
DOCKED: ATOM     40  O   UNL d   1       0.639   4.770  18.208 -0.06 +0.03    -0.303 OA
DOCKED: ATOM     41  H   UNL d   1      -0.163   5.008  18.724 +0.04 -0.02    +0.222 HD
DOCKED: ENDBRANCH  36  40
DOCKED: ENDBRANCH  35  36
DOCKED: ENDBRANCH   5  35
DOCKED: BRANCH   4  42
DOCKED: ATOM     42  O   UNL d   1      -2.408   0.627  16.717 -0.17 +0.03    -0.278 OA
DOCKED: BRANCH  42  43
DOCKED: ATOM     43  P   UNL d   1      -1.247  -0.465  16.663 -0.13 -0.09    +0.473 P 
DOCKED: ATOM     44  O   UNL d   1      -0.802  -0.929  15.318 -0.23 +0.07    -0.228 OA
DOCKED: BRANCH  43  45
DOCKED: ATOM     45  O   UNL d   1      -0.096   0.205  17.533 -0.04 +0.05    -0.303 OA
DOCKED: ATOM     46  H   UNL d   1       0.239   1.023  17.114 +0.06 -0.04    +0.222 HD
DOCKED: ENDBRANCH  43  45
DOCKED: BRANCH  43  47
DOCKED: ATOM     47  O   UNL d   1      -1.776  -1.612  17.650 -0.11 +0.06    -0.303 OA
DOCKED: ATOM     48  H   UNL d   1      -2.604  -1.312  18.078 +0.07 -0.03    +0.222 HD
DOCKED: ENDBRANCH  43  47
DOCKED: ENDBRANCH  42  43
DOCKED: ENDBRANCH   4  42
DOCKED: TORSDOF 24
DOCKED: TER
DOCKED: ENDMDL
________________________________________________________________________________


	BEGINNING GENETIC ALGORITHM DOCKING 30 of 100
Run: 30 Seed: 690145928 169430884 [ Run 30 of 100 GA/GALS ]
Beginning LAMARCKIAN GENETIC ALGORITHM (LGA), with a maximum of 25000000 energy evaluations.

Final-Value: -15.102


	FINAL GENETIC ALGORITHM DOCKED STATE
	_______________________________________________


Detailed state:  trans 12.488 15.944 13.418 quatxyzw -0.090243 -0.922384 -0.132673 0.351372 center 0.035 0.082 -0.065 ntor 24 -131.4743 24.6314 12.0281 16.5511 -39.5888 -23.6152 -70.4585 -51.7975 180.0000 37.6229 -152.8839 178.6940 -162.8978 166.4700 -94.1309 -168.2191 0.5639 157.4385 50.4722 -7.4719 117.4968 -15.1895 131.3599 180.0000
State:	 12.488  15.944  13.418  -0.096 -0.985 -0.142 138.857   -131.47   24.63   12.03   16.55  -39.59  -23.62  -70.46  -51.80  180.00   37.62 -152.88  178.69 -162.90  166.47  -94.13 -168.22    0.56  157.44   50.47   -7.47  117.50  -15.19  131.36  180.00

DOCKED: MODEL       30
DOCKED: USER    Run = 30
DOCKED: USER    DPF = D:/Protein_go_brrr/autodock/final/mut_Y35F/IHP/dock.dpf
DOCKED: USER  
DOCKED: USER    Estimated Free Energy of Binding    =   +4.71 kcal/mol  [=(1)+(2)+(3)-(4)]
DOCKED: USER    
DOCKED: USER    (1) Final Intermolecular Energy     =   -2.45 kcal/mol
DOCKED: USER        vdW + Hbond + desolv Energy     =   -2.21 kcal/mol
DOCKED: USER        Electrostatic Energy            =   -0.25 kcal/mol
DOCKED: USER    (2) Final Total Internal Energy     =  -12.65 kcal/mol
DOCKED: USER    (3) Torsional Free Energy           =   +7.16 kcal/mol
DOCKED: USER    (4) Unbound System's Energy  [=(2)] =  -12.65 kcal/mol
DOCKED: USER    
DOCKED: USER    
DOCKED: USER    NEWDPF move IHP_ideal_opt.pdbqt
DOCKED: USER    NEWDPF about 0.035000 0.082000 -0.065000
DOCKED: USER    NEWDPF tran0 12.487775 15.943906 13.418279
DOCKED: USER    NEWDPF quaternion0 -0.090243 -0.922384 -0.132673 0.351372
DOCKED: USER    NEWDPF axisangle0 -0.096389 -0.985204 -0.141709 138.857502
DOCKED: USER    NEWDPF quat0 -0.096389 -0.985204 -0.141709 138.857502
DOCKED: USER    NEWDPF dihe0 -131.47 24.63 12.03 16.55 -39.59 -23.62 -70.46 -51.80 180.00 37.62 -152.88 178.69 -162.90 166.47 -94.13 -168.22 0.56 157.44 50.47 -7.47 117.50 -15.19 131.36 180.00 
DOCKED: USER  keepresnum = 1 
DOCKED: USER  
DOCKED: REMARK  24 active torsions:
DOCKED: REMARK  status: ('A' for Active; 'I' for Inactive)
DOCKED: REMARK    1  A    between atoms: C_1  and  O_7 
DOCKED: REMARK    2  A    between atoms: C_2  and  O_12 
DOCKED: REMARK    3  A    between atoms: C_3  and  O_17 
DOCKED: REMARK    4  A    between atoms: C_4  and  O_22 
DOCKED: REMARK    5  A    between atoms: C_5  and  O_27 
DOCKED: REMARK    6  A    between atoms: C_6  and  O_32 
DOCKED: REMARK    7  A    between atoms: O_7  and  P_8 
DOCKED: REMARK    8  A    between atoms: P_8  and  O_10 
DOCKED: REMARK    9  A    between atoms: P_8  and  O_11 
DOCKED: REMARK   10  A    between atoms: O_12  and  P_13 
DOCKED: REMARK   11  A    between atoms: P_13  and  O_15 
DOCKED: REMARK   12  A    between atoms: P_13  and  O_16 
DOCKED: REMARK   13  A    between atoms: O_17  and  P_18 
DOCKED: REMARK   14  A    between atoms: P_18  and  O_20 
DOCKED: REMARK   15  A    between atoms: P_18  and  O_21 
DOCKED: REMARK   16  A    between atoms: O_22  and  P_23 
DOCKED: REMARK   17  A    between atoms: P_23  and  O_25 
DOCKED: REMARK   18  A    between atoms: P_23  and  O_26 
DOCKED: REMARK   19  A    between atoms: O_27  and  P_28 
DOCKED: REMARK   20  A    between atoms: P_28  and  O_30 
DOCKED: REMARK   21  A    between atoms: P_28  and  O_31 
DOCKED: REMARK   22  A    between atoms: O_32  and  P_33 
DOCKED: REMARK   23  A    between atoms: P_33  and  O_35 
DOCKED: REMARK   24  A    between atoms: P_33  and  O_36 
DOCKED: USER                              x       y       z     vdW  Elec       q    Type
DOCKED: USER                           _______ _______ _______ _____ _____    ______ ____
DOCKED: ROOT
DOCKED: ATOM      1  C   UNL d   1      12.031  15.570  11.795 -0.10 +0.08    +0.194 C 
DOCKED: ATOM      2  C   UNL d   1      12.644  14.417  12.591 -0.07 +0.09    +0.194 C 
DOCKED: ATOM      3  C   UNL d   1      13.859  14.871  13.403 -0.01 +0.06    +0.194 C 
DOCKED: ATOM      4  C   UNL d   1      13.576  16.090  14.277 -0.01 +0.06    +0.194 C 
DOCKED: ATOM      5  C   UNL d   1      12.861  17.222  13.551 -0.03 +0.05    +0.194 C 
DOCKED: ATOM      6  C   UNL d   1      11.684  16.760  12.690 -0.10 +0.08    +0.194 C 
DOCKED: ENDROOT
DOCKED: BRANCH   1   7
DOCKED: ATOM      7  O   UNL d   1      10.812  15.109  11.207 -0.12 -0.14    -0.278 OA
DOCKED: BRANCH   7   8
DOCKED: ATOM      8  P   UNL d   1      10.899  14.082   9.987 -0.17 +0.13    +0.473 P 
DOCKED: ATOM      9  O   UNL d   1      10.471  14.628   8.670 -0.27 -0.02    -0.228 OA
DOCKED: BRANCH   8  10
DOCKED: ATOM     10  O   UNL d   1      12.418  13.593  10.000 -0.04 -0.06    -0.303 OA
DOCKED: ATOM     11  H   UNL d   1      12.571  13.021  10.775 +0.04 +0.06    +0.222 HD
DOCKED: ENDBRANCH   8  10
DOCKED: BRANCH   8  12
DOCKED: ATOM     12  O   UNL d   1      10.128  12.784  10.483 -0.21 -0.13    -0.303 OA
DOCKED: ATOM     13  H   UNL d   1      10.054  12.731  11.463 +0.06 +0.15    +0.222 HD
DOCKED: ENDBRANCH   8  12
DOCKED: ENDBRANCH   7   8
DOCKED: ENDBRANCH   1   7
DOCKED: BRANCH   2  14
DOCKED: ATOM     14  O   UNL d   1      11.659  13.898  13.494 -0.57 -0.33    -0.278 OA
DOCKED: BRANCH  14  15
DOCKED: ATOM     15  P   UNL d   1      11.338  12.333  13.381 -0.09 +0.44    +0.473 P 
DOCKED: ATOM     16  O   UNL d   1       9.899  11.934  13.470 -0.37 -0.33    -0.228 OA
DOCKED: BRANCH  15  17
DOCKED: ATOM     17  O   UNL d   1      12.016  11.897  12.006 -0.05 -0.13    -0.303 OA
DOCKED: ATOM     18  H   UNL d   1      11.427  12.084  11.249 +0.05 +0.09    +0.222 HD
DOCKED: ENDBRANCH  15  17
DOCKED: BRANCH  15  19
DOCKED: ATOM     19  O   UNL d   1      12.306  11.652  14.444 -0.02 -0.16    -0.303 OA
DOCKED: ATOM     20  H   UNL d   1      13.203  12.033  14.411 +0.01 +0.09    +0.222 HD
DOCKED: ENDBRANCH  15  19
DOCKED: ENDBRANCH  14  15
DOCKED: ENDBRANCH   2  14
DOCKED: BRANCH   6  21
DOCKED: ATOM     21  O   UNL d   1      11.350  17.848  11.831 -0.06 -0.06    -0.278 OA
DOCKED: BRANCH  21  22
DOCKED: ATOM     22  P   UNL d   1      12.375  19.056  11.647 +0.00 +0.04    +0.473 P 
DOCKED: ATOM     23  O   UNL d   1      12.694  19.896  12.837 -0.01 -0.02    -0.228 OA
DOCKED: BRANCH  22  24
DOCKED: ATOM     24  O   UNL d   1      13.628  18.323  10.993 -0.00 -0.02    -0.303 OA
DOCKED: ATOM     25  H   UNL d   1      14.333  18.242  11.684 +0.01 +0.02    +0.222 HD
DOCKED: ENDBRANCH  22  24
DOCKED: BRANCH  22  26
DOCKED: ATOM     26  O   UNL d   1      11.748  19.827  10.389 -0.01 -0.00    -0.303 OA
DOCKED: ATOM     27  H   UNL d   1      12.118  20.733  10.351 +0.01 -0.00    +0.222 HD
DOCKED: ENDBRANCH  22  26
DOCKED: ENDBRANCH  21  22
DOCKED: ENDBRANCH   6  21
DOCKED: BRANCH   3  28
DOCKED: ATOM     28  O   UNL d   1      14.184  13.824  14.308 -0.00 -0.08    -0.278 OA
DOCKED: BRANCH  28  29
DOCKED: ATOM     29  P   UNL d   1      15.299  12.752  13.931 +0.01 +0.08    +0.473 P 
DOCKED: ATOM     30  O   UNL d   1      15.790  11.914  15.055 +0.00 -0.03    -0.228 OA
DOCKED: BRANCH  29  31
DOCKED: ATOM     31  O   UNL d   1      14.563  11.994  12.729 +0.00 -0.06    -0.303 OA
DOCKED: ATOM     32  H   UNL d   1      13.597  12.182  12.784 +0.02 +0.06    +0.222 HD
DOCKED: ENDBRANCH  29  31
DOCKED: BRANCH  29  33
DOCKED: ATOM     33  O   UNL d   1      16.379  13.645  13.174 +0.00 -0.03    -0.303 OA
DOCKED: ATOM     34  H   UNL d   1      16.123  14.596  13.255 +0.00 +0.03    +0.222 HD
DOCKED: ENDBRANCH  29  33
DOCKED: ENDBRANCH  28  29
DOCKED: ENDBRANCH   3  28
DOCKED: BRANCH   5  35
DOCKED: ATOM     35  O   UNL d   1      12.329  18.063  14.574 -0.01 -0.07    -0.278 OA
DOCKED: BRANCH  35  36
DOCKED: ATOM     36  P   UNL d   1      10.802  17.925  15.015 -0.05 +0.21    +0.473 P 
DOCKED: ATOM     37  O   UNL d   1      10.312  16.526  15.212 -0.02 -0.28    -0.228 OA
DOCKED: BRANCH  36  38
DOCKED: ATOM     38  O   UNL d   1      10.760  18.825  16.328 -0.01 -0.07    -0.303 OA
DOCKED: ATOM     39  H   UNL d   1      10.241  19.638  16.143 +0.01 +0.03    +0.222 HD
DOCKED: ENDBRANCH  36  38
DOCKED: BRANCH  36  40
DOCKED: ATOM     40  O   UNL d   1      10.052  18.805  13.923 -0.05 -0.08    -0.303 OA
DOCKED: ATOM     41  H   UNL d   1      10.685  19.249  13.316 +0.03 +0.04    +0.222 HD
DOCKED: ENDBRANCH  36  40
DOCKED: ENDBRANCH  35  36
DOCKED: ENDBRANCH   5  35
DOCKED: BRANCH   4  42
DOCKED: ATOM     42  O   UNL d   1      14.845  16.598  14.704 +0.00 -0.04    -0.278 OA
DOCKED: BRANCH  42  43
DOCKED: ATOM     43  P   UNL d   1      15.807  17.272  13.625 +0.00 +0.04    +0.473 P 
DOCKED: ATOM     44  O   UNL d   1      17.264  17.308  13.932 +0.00 -0.01    -0.228 OA
DOCKED: BRANCH  43  45
DOCKED: ATOM     45  O   UNL d   1      15.443  16.485  12.291 +0.00 -0.03    -0.303 OA
DOCKED: ATOM     46  H   UNL d   1      15.323  17.095  11.536 +0.00 +0.02    +0.222 HD
DOCKED: ENDBRANCH  43  45
DOCKED: BRANCH  43  47
DOCKED: ATOM     47  O   UNL d   1      15.120  18.696  13.361 +0.00 -0.02    -0.303 OA
DOCKED: ATOM     48  H   UNL d   1      14.296  18.759  13.886 +0.00 +0.02    +0.222 HD
DOCKED: ENDBRANCH  43  47
DOCKED: ENDBRANCH  42  43
DOCKED: ENDBRANCH   4  42
DOCKED: TORSDOF 24
DOCKED: TER
DOCKED: ENDMDL
________________________________________________________________________________


	BEGINNING GENETIC ALGORITHM DOCKING 31 of 100
Run: 31 Seed: 1829488133 1180439227 [ Run 31 of 100 GA/GALS ]
Beginning LAMARCKIAN GENETIC ALGORITHM (LGA), with a maximum of 25000000 energy evaluations.

Final-Value: -18.821


	FINAL GENETIC ALGORITHM DOCKED STATE
	_______________________________________________


Detailed state:  trans -10.015 -17.798 -2.762 quatxyzw -0.376296 -0.168462 0.601473 0.684290 center 0.035 0.082 -0.065 ntor 24 160.0185 77.8101 158.3679 125.8522 8.2563 159.9966 -26.1735 -179.6884 102.4602 -73.5182 -68.0840 136.1439 -34.9822 95.2495 179.5524 149.2515 -130.9615 173.1801 -5.4737 -29.9854 -21.3071 -42.6089 -5.3242 176.0814
State:	-10.015 -17.798  -2.762  -0.516 -0.231  0.825 93.640    160.02   77.81  158.37  125.85    8.26  160.00  -26.17 -179.69  102.46  -73.52  -68.08  136.14  -34.98   95.25  179.55  149.25 -130.96  173.18   -5.47  -29.99  -21.31  -42.61   -5.32  176.08

DOCKED: MODEL       31
DOCKED: USER    Run = 31
DOCKED: USER    DPF = D:/Protein_go_brrr/autodock/final/mut_Y35F/IHP/dock.dpf
DOCKED: USER  
DOCKED: USER    Estimated Free Energy of Binding    =   +2.39 kcal/mol  [=(1)+(2)+(3)-(4)]
DOCKED: USER    
DOCKED: USER    (1) Final Intermolecular Energy     =   -4.77 kcal/mol
DOCKED: USER        vdW + Hbond + desolv Energy     =   -4.58 kcal/mol
DOCKED: USER        Electrostatic Energy            =   -0.19 kcal/mol
DOCKED: USER    (2) Final Total Internal Energy     =  -14.05 kcal/mol
DOCKED: USER    (3) Torsional Free Energy           =   +7.16 kcal/mol
DOCKED: USER    (4) Unbound System's Energy  [=(2)] =  -14.05 kcal/mol
DOCKED: USER    
DOCKED: USER    
DOCKED: USER    NEWDPF move IHP_ideal_opt.pdbqt
DOCKED: USER    NEWDPF about 0.035000 0.082000 -0.065000
DOCKED: USER    NEWDPF tran0 -10.014547 -17.798370 -2.761615
DOCKED: USER    NEWDPF quaternion0 -0.376296 -0.168462 0.601473 0.684290
DOCKED: USER    NEWDPF axisangle0 -0.516032 -0.231020 0.824827 93.640477
DOCKED: USER    NEWDPF quat0 -0.516032 -0.231020 0.824827 93.640477
DOCKED: USER    NEWDPF dihe0 160.02 77.81 158.37 125.85 8.26 160.00 -26.17 -179.69 102.46 -73.52 -68.08 136.14 -34.98 95.25 179.55 149.25 -130.96 173.18 -5.47 -29.99 -21.31 -42.61 -5.32 176.08 
DOCKED: USER  keepresnum = 1 
DOCKED: USER  
DOCKED: REMARK  24 active torsions:
DOCKED: REMARK  status: ('A' for Active; 'I' for Inactive)
DOCKED: REMARK    1  A    between atoms: C_1  and  O_7 
DOCKED: REMARK    2  A    between atoms: C_2  and  O_12 
DOCKED: REMARK    3  A    between atoms: C_3  and  O_17 
DOCKED: REMARK    4  A    between atoms: C_4  and  O_22 
DOCKED: REMARK    5  A    between atoms: C_5  and  O_27 
DOCKED: REMARK    6  A    between atoms: C_6  and  O_32 
DOCKED: REMARK    7  A    between atoms: O_7  and  P_8 
DOCKED: REMARK    8  A    between atoms: P_8  and  O_10 
DOCKED: REMARK    9  A    between atoms: P_8  and  O_11 
DOCKED: REMARK   10  A    between atoms: O_12  and  P_13 
DOCKED: REMARK   11  A    between atoms: P_13  and  O_15 
DOCKED: REMARK   12  A    between atoms: P_13  and  O_16 
DOCKED: REMARK   13  A    between atoms: O_17  and  P_18 
DOCKED: REMARK   14  A    between atoms: P_18  and  O_20 
DOCKED: REMARK   15  A    between atoms: P_18  and  O_21 
DOCKED: REMARK   16  A    between atoms: O_22  and  P_23 
DOCKED: REMARK   17  A    between atoms: P_23  and  O_25 
DOCKED: REMARK   18  A    between atoms: P_23  and  O_26 
DOCKED: REMARK   19  A    between atoms: O_27  and  P_28 
DOCKED: REMARK   20  A    between atoms: P_28  and  O_30 
DOCKED: REMARK   21  A    between atoms: P_28  and  O_31 
DOCKED: REMARK   22  A    between atoms: O_32  and  P_33 
DOCKED: REMARK   23  A    between atoms: P_33  and  O_35 
DOCKED: REMARK   24  A    between atoms: P_33  and  O_36 
DOCKED: USER                              x       y       z     vdW  Elec       q    Type
DOCKED: USER                           _______ _______ _______ _____ _____    ______ ____
DOCKED: ROOT
DOCKED: ATOM      1  C   UNL d   1     -10.759 -19.233  -3.373 -0.03 -0.00    +0.194 C 
DOCKED: ATOM      2  C   UNL d   1     -11.714 -18.093  -3.015 -0.06 +0.00    +0.194 C 
DOCKED: ATOM      3  C   UNL d   1     -11.335 -17.431  -1.689 -0.10 -0.00    +0.194 C 
DOCKED: ATOM      4  C   UNL d   1      -9.873 -16.998  -1.630 -0.16 +0.00    +0.194 C 
DOCKED: ATOM      5  C   UNL d   1      -8.889 -18.067  -2.088 -0.10 -0.00    +0.194 C 
DOCKED: ATOM      6  C   UNL d   1      -9.300 -18.772  -3.383 -0.07 -0.01    +0.194 C 
DOCKED: ENDROOT
DOCKED: BRANCH   1   7
DOCKED: ATOM      7  O   UNL d   1     -11.073 -19.680  -4.694 -0.02 -0.00    -0.278 OA
DOCKED: BRANCH   7   8
DOCKED: ATOM      8  P   UNL d   1     -11.324 -21.240  -4.927 +0.00 +0.00    +0.473 P 
DOCKED: ATOM      9  O   UNL d   1     -11.587 -22.028  -3.692 -0.00 +0.00    -0.228 OA
DOCKED: BRANCH   8  10
DOCKED: ATOM     10  O   UNL d   1     -12.531 -21.286  -5.970 -0.00 -0.00    -0.303 OA
DOCKED: ATOM     11  H   UNL d   1     -12.780 -20.377  -6.222 +0.01 +0.00    +0.222 HD
DOCKED: ENDBRANCH   8  10
DOCKED: BRANCH   8  12
DOCKED: ATOM     12  O   UNL d   1     -10.100 -21.728  -5.814 -0.00 -0.00    -0.303 OA
DOCKED: ATOM     13  H   UNL d   1      -9.267 -21.240  -5.624 +0.03 -0.00    +0.222 HD
DOCKED: ENDBRANCH   8  12
DOCKED: ENDBRANCH   7   8
DOCKED: ENDBRANCH   1   7
DOCKED: BRANCH   2  14
DOCKED: ATOM     14  O   UNL d   1     -11.668 -17.103  -4.049 -0.13 -0.01    -0.278 OA
DOCKED: BRANCH  14  15
DOCKED: ATOM     15  P   UNL d   1     -12.877 -17.108  -5.100 -0.10 +0.06    +0.473 P 
DOCKED: ATOM     16  O   UNL d   1     -13.235 -15.793  -5.719 -0.74 -0.09    -0.228 OA
DOCKED: BRANCH  15  17
DOCKED: ATOM     17  O   UNL d   1     -12.449 -18.201  -6.177 -0.09 -0.03    -0.303 OA
DOCKED: ATOM     18  H   UNL d   1     -12.374 -19.085  -5.770 +0.03 +0.01    +0.222 HD
DOCKED: ENDBRANCH  15  17
DOCKED: BRANCH  15  19
DOCKED: ATOM     19  O   UNL d   1     -14.059 -17.854  -4.341 -0.03 -0.01    -0.303 OA
DOCKED: ATOM     20  H   UNL d   1     -14.376 -17.340  -3.575 +0.04 +0.00    +0.222 HD
DOCKED: ENDBRANCH  15  19
DOCKED: ENDBRANCH  14  15
DOCKED: ENDBRANCH   2  14
DOCKED: BRANCH   6  21
DOCKED: ATOM     21  O   UNL d   1      -8.493 -19.942  -3.489 -0.03 +0.00    -0.278 OA
DOCKED: BRANCH  21  22
DOCKED: ATOM     22  P   UNL d   1      -7.596 -20.170  -4.789 -0.09 -0.04    +0.473 P 
DOCKED: ATOM     23  O   UNL d   1      -7.316 -21.571  -5.215 -0.05 +0.01    -0.228 OA
DOCKED: BRANCH  22  24
DOCKED: ATOM     24  O   UNL d   1      -8.359 -19.284  -5.869 -0.15 +0.02    -0.303 OA
DOCKED: ATOM     25  H   UNL d   1      -9.293 -19.609  -5.931 +0.06 -0.01    +0.222 HD
DOCKED: ENDBRANCH  22  24
DOCKED: BRANCH  22  26
DOCKED: ATOM     26  O   UNL d   1      -6.314 -19.264  -4.463 -0.11 +0.10    -0.303 OA
DOCKED: ATOM     27  H   UNL d   1      -6.522 -18.670  -3.713 +0.06 -0.05    +0.222 HD
DOCKED: ENDBRANCH  22  26
DOCKED: ENDBRANCH  21  22
DOCKED: ENDBRANCH   6  21
DOCKED: BRANCH   3  28
DOCKED: ATOM     28  O   UNL d   1     -12.089 -16.231  -1.578 -0.13 -0.00    -0.278 OA
DOCKED: BRANCH  28  29
DOCKED: ATOM     29  P   UNL d   1     -13.669 -16.288  -1.384 -0.07 -0.02    +0.473 P 
DOCKED: ATOM     30  O   UNL d   1     -14.193 -15.593  -0.181 -0.24 +0.02    -0.228 OA
DOCKED: BRANCH  29  31
DOCKED: ATOM     31  O   UNL d   1     -14.146 -15.734  -2.808 -0.09 -0.00    -0.303 OA
DOCKED: ATOM     32  H   UNL d   1     -13.438 -15.918  -3.469 +0.08 +0.01    +0.222 HD
DOCKED: ENDBRANCH  29  31
DOCKED: BRANCH  29  33
DOCKED: ATOM     33  O   UNL d   1     -13.963 -17.849  -1.498 -0.02 +0.01    -0.303 OA
DOCKED: ATOM     34  H   UNL d   1     -14.587 -18.005  -2.249 +0.03 -0.01    +0.222 HD
DOCKED: ENDBRANCH  29  33
DOCKED: ENDBRANCH  28  29
DOCKED: ENDBRANCH   3  28
DOCKED: BRANCH   5  35
DOCKED: ATOM     35  O   UNL d   1      -7.668 -17.380  -2.354 -0.15 +0.01    -0.278 OA
DOCKED: BRANCH  35  36
DOCKED: ATOM     36  P   UNL d   1      -6.315 -17.842  -1.645 -0.24 +0.06    +0.473 P 
DOCKED: ATOM     37  O   UNL d   1      -6.058 -17.247  -0.297 -0.35 -0.04    -0.228 OA
DOCKED: BRANCH  36  38
DOCKED: ATOM     38  O   UNL d   1      -6.473 -19.427  -1.642 -0.12 -0.08    -0.303 OA
DOCKED: ATOM     39  H   UNL d   1      -6.976 -19.701  -2.439 +0.06 +0.02    +0.222 HD
DOCKED: ENDBRANCH  36  38
DOCKED: BRANCH  36  40
DOCKED: ATOM     40  O   UNL d   1      -5.229 -17.568  -2.775 -0.52 +0.05    -0.303 OA
DOCKED: ATOM     41  H   UNL d   1      -4.811 -18.401  -3.087 -0.47 -0.20    +0.222 HD
DOCKED: ENDBRANCH  36  40
DOCKED: ENDBRANCH  35  36
DOCKED: ENDBRANCH   5  35
DOCKED: BRANCH   4  42
DOCKED: ATOM     42  O   UNL d   1      -9.579 -16.716  -0.257 -0.18 -0.01    -0.278 OA
DOCKED: BRANCH  42  43
DOCKED: ATOM     43  P   UNL d   1      -9.625 -17.909   0.802 -0.14 -0.00    +0.473 P 
DOCKED: ATOM     44  O   UNL d   1     -10.191 -17.611   2.147 -0.31 +0.03    -0.228 OA
DOCKED: BRANCH  43  45
DOCKED: ATOM     45  O   UNL d   1     -10.399 -19.050   0.008 -0.04 +0.00    -0.303 OA
DOCKED: ATOM     46  H   UNL d   1     -11.014 -19.538   0.592 +0.04 -0.00    +0.222 HD
DOCKED: ENDBRANCH  43  45
DOCKED: BRANCH  43  47
DOCKED: ATOM     47  O   UNL d   1      -8.122 -18.467   0.791 -0.00 -0.02    -0.303 OA
DOCKED: ATOM     48  H   UNL d   1      -7.814 -18.546  -0.136 +0.09 +0.02    +0.222 HD
DOCKED: ENDBRANCH  43  47
DOCKED: ENDBRANCH  42  43
DOCKED: ENDBRANCH   4  42
DOCKED: TORSDOF 24
DOCKED: TER
DOCKED: ENDMDL
________________________________________________________________________________


	BEGINNING GENETIC ALGORITHM DOCKING 32 of 100
Run: 32 Seed: 1856671989 1019876689 [ Run 32 of 100 GA/GALS ]
Beginning LAMARCKIAN GENETIC ALGORITHM (LGA), with a maximum of 25000000 energy evaluations.

Final-Value: -17.907


	FINAL GENETIC ALGORITHM DOCKED STATE
	_______________________________________________


Detailed state:  trans -8.302 -11.816 13.134 quatxyzw 0.845674 0.427776 -0.234810 0.216118 center 0.035 0.082 -0.065 ntor 24 -164.8972 -6.1778 146.1323 20.1611 160.0420 103.1631 -117.8821 14.1795 157.2013 -44.6734 37.1740 -97.9537 -129.1435 -139.7185 46.3769 56.3829 173.0127 -94.4657 48.9875 -3.4272 -179.8795 157.1853 30.0206 174.4721
State:	 -8.302 -11.816  13.134   0.866  0.438 -0.240 155.038   -164.90   -6.18  146.13   20.16  160.04  103.16 -117.88   14.18  157.20  -44.67   37.17  -97.95 -129.14 -139.72   46.38   56.38  173.01  -94.47   48.99   -3.43 -179.88  157.19   30.02  174.47

DOCKED: MODEL       32
DOCKED: USER    Run = 32
DOCKED: USER    DPF = D:/Protein_go_brrr/autodock/final/mut_Y35F/IHP/dock.dpf
DOCKED: USER  
DOCKED: USER    Estimated Free Energy of Binding    =   +2.78 kcal/mol  [=(1)+(2)+(3)-(4)]
DOCKED: USER    
DOCKED: USER    (1) Final Intermolecular Energy     =   -4.38 kcal/mol
DOCKED: USER        vdW + Hbond + desolv Energy     =   -4.40 kcal/mol
DOCKED: USER        Electrostatic Energy            =   +0.02 kcal/mol
DOCKED: USER    (2) Final Total Internal Energy     =  -13.53 kcal/mol
DOCKED: USER    (3) Torsional Free Energy           =   +7.16 kcal/mol
DOCKED: USER    (4) Unbound System's Energy  [=(2)] =  -13.53 kcal/mol
DOCKED: USER    
DOCKED: USER    
DOCKED: USER    NEWDPF move IHP_ideal_opt.pdbqt
DOCKED: USER    NEWDPF about 0.035000 0.082000 -0.065000
DOCKED: USER    NEWDPF tran0 -8.302266 -11.816375 13.134220
DOCKED: USER    NEWDPF quaternion0 0.845674 0.427776 -0.234810 0.216118
DOCKED: USER    NEWDPF axisangle0 0.866144 0.438130 -0.240493 155.037709
DOCKED: USER    NEWDPF quat0 0.866144 0.438130 -0.240493 155.037709
DOCKED: USER    NEWDPF dihe0 -164.90 -6.18 146.13 20.16 160.04 103.16 -117.88 14.18 157.20 -44.67 37.17 -97.95 -129.14 -139.72 46.38 56.38 173.01 -94.47 48.99 -3.43 -179.88 157.19 30.02 174.47 
DOCKED: USER  keepresnum = 1 
DOCKED: USER  
DOCKED: REMARK  24 active torsions:
DOCKED: REMARK  status: ('A' for Active; 'I' for Inactive)
DOCKED: REMARK    1  A    between atoms: C_1  and  O_7 
DOCKED: REMARK    2  A    between atoms: C_2  and  O_12 
DOCKED: REMARK    3  A    between atoms: C_3  and  O_17 
DOCKED: REMARK    4  A    between atoms: C_4  and  O_22 
DOCKED: REMARK    5  A    between atoms: C_5  and  O_27 
DOCKED: REMARK    6  A    between atoms: C_6  and  O_32 
DOCKED: REMARK    7  A    between atoms: O_7  and  P_8 
DOCKED: REMARK    8  A    between atoms: P_8  and  O_10 
DOCKED: REMARK    9  A    between atoms: P_8  and  O_11 
DOCKED: REMARK   10  A    between atoms: O_12  and  P_13 
DOCKED: REMARK   11  A    between atoms: P_13  and  O_15 
DOCKED: REMARK   12  A    between atoms: P_13  and  O_16 
DOCKED: REMARK   13  A    between atoms: O_17  and  P_18 
DOCKED: REMARK   14  A    between atoms: P_18  and  O_20 
DOCKED: REMARK   15  A    between atoms: P_18  and  O_21 
DOCKED: REMARK   16  A    between atoms: O_22  and  P_23 
DOCKED: REMARK   17  A    between atoms: P_23  and  O_25 
DOCKED: REMARK   18  A    between atoms: P_23  and  O_26 
DOCKED: REMARK   19  A    between atoms: O_27  and  P_28 
DOCKED: REMARK   20  A    between atoms: P_28  and  O_30 
DOCKED: REMARK   21  A    between atoms: P_28  and  O_31 
DOCKED: REMARK   22  A    between atoms: O_32  and  P_33 
DOCKED: REMARK   23  A    between atoms: P_33  and  O_35 
DOCKED: REMARK   24  A    between atoms: P_33  and  O_36 
DOCKED: USER                              x       y       z     vdW  Elec       q    Type
DOCKED: USER                           _______ _______ _______ _____ _____    ______ ____
DOCKED: ROOT
DOCKED: ATOM      1  C   UNL d   1      -8.659 -10.172  12.741 -0.13 +0.11    +0.194 C 
DOCKED: ATOM      2  C   UNL d   1      -9.598 -10.828  13.756 -0.07 +0.12    +0.194 C 
DOCKED: ATOM      3  C   UNL d   1      -9.975 -12.252  13.340 -0.07 +0.09    +0.194 C 
DOCKED: ATOM      4  C   UNL d   1      -8.765 -13.127  13.024 -0.04 +0.03    +0.194 C 
DOCKED: ATOM      5  C   UNL d   1      -7.744 -12.467  12.106 -0.08 +0.03    +0.194 C 
DOCKED: ATOM      6  C   UNL d   1      -7.413 -11.022  12.485 -0.14 +0.03    +0.194 C 
DOCKED: ENDROOT
DOCKED: BRANCH   1   7
DOCKED: ATOM      7  O   UNL d   1      -8.220  -8.924  13.282 -0.21 -0.04    -0.278 OA
DOCKED: BRANCH   7   8
DOCKED: ATOM      8  P   UNL d   1      -9.255  -7.708  13.323 -0.20 +0.14    +0.473 P 
DOCKED: ATOM      9  O   UNL d   1      -9.470  -7.019  12.022 -0.70 -0.10    -0.228 OA
DOCKED: BRANCH   8  10
DOCKED: ATOM     10  O   UNL d   1     -10.586  -8.354  13.920 -0.54 -0.24    -0.303 OA
DOCKED: ATOM     11  H   UNL d   1     -10.354  -9.007  14.606 +0.05 +0.11    +0.222 HD
DOCKED: ENDBRANCH   8  10
DOCKED: BRANCH   8  12
DOCKED: ATOM     12  O   UNL d   1      -8.765  -6.789  14.523 -0.22 +0.07    -0.303 OA
DOCKED: ATOM     13  H   UNL d   1      -8.629  -7.287  15.360 +0.01 -0.04    +0.222 HD
DOCKED: ENDBRANCH   8  12
DOCKED: ENDBRANCH   7   8
DOCKED: ENDBRANCH   1   7
DOCKED: BRANCH   2  14
DOCKED: ATOM     14  O   UNL d   1      -8.944 -10.882  15.030 -0.02 -0.05    -0.278 OA
DOCKED: BRANCH  14  15
DOCKED: ATOM     15  P   UNL d   1      -9.756 -10.289  16.276 +0.01 +0.04    +0.473 P 
DOCKED: ATOM     16  O   UNL d   1      -9.665  -8.811  16.495 -0.03 +0.00    -0.228 OA
DOCKED: BRANCH  15  17
DOCKED: ATOM     17  O   UNL d   1     -11.250 -10.787  16.038 -0.00 -0.05    -0.303 OA
DOCKED: ATOM     18  H   UNL d   1     -11.277 -11.747  15.864 +0.01 +0.04    +0.222 HD
DOCKED: ENDBRANCH  15  17
DOCKED: BRANCH  15  19
DOCKED: ATOM     19  O   UNL d   1      -9.310 -11.193  17.507 +0.00 -0.01    -0.303 OA
DOCKED: ATOM     20  H   UNL d   1      -9.227 -12.131  17.254 +0.00 +0.01    +0.222 HD
DOCKED: ENDBRANCH  15  19
DOCKED: ENDBRANCH  14  15
DOCKED: ENDBRANCH   2  14
DOCKED: BRANCH   6  21
DOCKED: ATOM     21  O   UNL d   1      -6.737 -10.447  11.369 -0.20 -0.01    -0.278 OA
DOCKED: BRANCH  21  22
DOCKED: ATOM     22  P   UNL d   1      -7.573  -9.976  10.094 -0.18 +0.03    +0.473 P 
DOCKED: ATOM     23  O   UNL d   1      -8.334  -8.697  10.184 -0.31 -0.04    -0.228 OA
DOCKED: BRANCH  22  24
DOCKED: ATOM     24  O   UNL d   1      -6.469 -10.016   8.949 -0.31 +0.06    -0.303 OA
DOCKED: ATOM     25  H   UNL d   1      -6.522 -10.898   8.500 -0.30 -0.07    +0.222 HD
DOCKED: ENDBRANCH  22  24
DOCKED: BRANCH  22  26
DOCKED: ATOM     26  O   UNL d   1      -8.436 -11.287   9.768 -0.19 -0.06    -0.303 OA
DOCKED: ATOM     27  H   UNL d   1      -7.845 -11.981   9.413 -0.31 -0.04    +0.222 HD
DOCKED: ENDBRANCH  22  26
DOCKED: ENDBRANCH  21  22
DOCKED: ENDBRANCH   6  21
DOCKED: BRANCH   3  28
DOCKED: ATOM     28  O   UNL d   1     -10.607 -12.869  14.454 -0.01 -0.07    -0.278 OA
DOCKED: BRANCH  28  29
DOCKED: ATOM     29  P   UNL d   1      -9.751 -13.715  15.498 +0.01 +0.04    +0.473 P 
DOCKED: ATOM     30  O   UNL d   1      -8.345 -13.272  15.681 -0.00 -0.01    -0.228 OA
DOCKED: BRANCH  29  31
DOCKED: ATOM     31  O   UNL d   1     -10.710 -13.634  16.776 +0.00 -0.02    -0.303 OA
DOCKED: ATOM     32  H   UNL d   1     -10.746 -12.698  17.083 +0.00 +0.01    +0.222 HD
DOCKED: ENDBRANCH  29  31
DOCKED: BRANCH  29  33
DOCKED: ATOM     33  O   UNL d   1      -9.975 -15.205  14.984 +0.00 -0.02    -0.303 OA
DOCKED: ATOM     34  H   UNL d   1      -9.458 -15.339  14.152 +0.01 +0.01    +0.222 HD
DOCKED: ENDBRANCH  29  33
DOCKED: ENDBRANCH  28  29
DOCKED: ENDBRANCH   3  28
DOCKED: BRANCH   5  35
DOCKED: ATOM     35  O   UNL d   1      -6.545 -13.224  12.252 -0.03 -0.01    -0.278 OA
DOCKED: BRANCH  35  36
DOCKED: ATOM     36  P   UNL d   1      -5.403 -13.146  11.141 -0.02 -0.01    +0.473 P 
DOCKED: ATOM     37  O   UNL d   1      -4.692 -14.430  10.855 -0.06 +0.00    -0.228 OA
DOCKED: BRANCH  36  38
DOCKED: ATOM     38  O   UNL d   1      -6.199 -12.547   9.898 +0.09 +0.02    -0.303 OA
DOCKED: ATOM     39  H   UNL d   1      -6.187 -11.567   9.951 +0.07 -0.02    +0.222 HD
DOCKED: ENDBRANCH  36  38
DOCKED: BRANCH  36  40
DOCKED: ATOM     40  O   UNL d   1      -4.517 -11.928  11.650 -0.06 +0.01    -0.303 OA
DOCKED: ATOM     41  H   UNL d   1      -4.862 -11.066  11.327 +0.08 -0.01    +0.222 HD
DOCKED: ENDBRANCH  36  40
DOCKED: ENDBRANCH  35  36
DOCKED: ENDBRANCH   5  35
DOCKED: BRANCH   4  42
DOCKED: ATOM     42  O   UNL d   1      -9.257 -14.285  12.342 -0.02 -0.04    -0.278 OA
DOCKED: BRANCH  42  43
DOCKED: ATOM     43  P   UNL d   1      -9.969 -14.102  10.926 -0.07 +0.08    +0.473 P 
DOCKED: ATOM     44  O   UNL d   1     -11.024 -13.057  10.818 -0.13 -0.11    -0.228 OA
DOCKED: BRANCH  43  45
DOCKED: ATOM     45  O   UNL d   1      -8.737 -13.888   9.942 -0.14 -0.01    -0.303 OA
DOCKED: ATOM     46  H   UNL d   1      -8.021 -13.378  10.370 +0.05 +0.01    +0.222 HD
DOCKED: ENDBRANCH  43  45
DOCKED: BRANCH  43  47
DOCKED: ATOM     47  O   UNL d   1     -10.429 -15.592  10.553 -0.03 -0.02    -0.303 OA
DOCKED: ATOM     48  H   UNL d   1     -11.264 -15.798  11.021 +0.04 +0.02    +0.222 HD
DOCKED: ENDBRANCH  43  47
DOCKED: ENDBRANCH  42  43
DOCKED: ENDBRANCH   4  42
DOCKED: TORSDOF 24
DOCKED: TER
DOCKED: ENDMDL
________________________________________________________________________________


	BEGINNING GENETIC ALGORITHM DOCKING 33 of 100
Run: 33 Seed: 1962405687 1516763220 [ Run 33 of 100 GA/GALS ]
Beginning LAMARCKIAN GENETIC ALGORITHM (LGA), with a maximum of 25000000 energy evaluations.

Final-Value: -17.135


	FINAL GENETIC ALGORITHM DOCKED STATE
	_______________________________________________


Detailed state:  trans 20.353 12.883 -6.618 quatxyzw -0.349372 0.249461 -0.002317 0.903163 center 0.035 0.082 -0.065 ntor 24 107.9724 108.1085 71.6091 106.1899 -24.2248 -160.8056 -169.6983 -95.7003 60.0633 -180.0000 -26.3416 132.4703 -65.4602 -84.6266 173.0173 -157.2320 -141.4936 -91.6412 -154.6302 -18.7990 -180.0000 -30.3915 -12.0089 172.6482
State:	 20.353  12.883  -6.618  -0.814  0.581 -0.005 50.846    107.97  108.11   71.61  106.19  -24.22 -160.81 -169.70  -95.70   60.06 -180.00  -26.34  132.47  -65.46  -84.63  173.02 -157.23 -141.49  -91.64 -154.63  -18.80 -180.00  -30.39  -12.01  172.65

DOCKED: MODEL       33
DOCKED: USER    Run = 33
DOCKED: USER    DPF = D:/Protein_go_brrr/autodock/final/mut_Y35F/IHP/dock.dpf
DOCKED: USER  
DOCKED: USER    Estimated Free Energy of Binding    =   +1.17 kcal/mol  [=(1)+(2)+(3)-(4)]
DOCKED: USER    
DOCKED: USER    (1) Final Intermolecular Energy     =   -5.99 kcal/mol
DOCKED: USER        vdW + Hbond + desolv Energy     =   -5.68 kcal/mol
DOCKED: USER        Electrostatic Energy            =   -0.31 kcal/mol
DOCKED: USER    (2) Final Total Internal Energy     =  -11.15 kcal/mol
DOCKED: USER    (3) Torsional Free Energy           =   +7.16 kcal/mol
DOCKED: USER    (4) Unbound System's Energy  [=(2)] =  -11.15 kcal/mol
DOCKED: USER    
DOCKED: USER    
DOCKED: USER    NEWDPF move IHP_ideal_opt.pdbqt
DOCKED: USER    NEWDPF about 0.035000 0.082000 -0.065000
DOCKED: USER    NEWDPF tran0 20.353415 12.882838 -6.618491
DOCKED: USER    NEWDPF quaternion0 -0.349372 0.249461 -0.002317 0.903163
DOCKED: USER    NEWDPF axisangle0 -0.813822 0.581090 -0.005397 50.846082
DOCKED: USER    NEWDPF quat0 -0.813822 0.581090 -0.005397 50.846082
DOCKED: USER    NEWDPF dihe0 107.97 108.11 71.61 106.19 -24.22 -160.81 -169.70 -95.70 60.06 -180.00 -26.34 132.47 -65.46 -84.63 173.02 -157.23 -141.49 -91.64 -154.63 -18.80 -180.00 -30.39 -12.01 172.65 
DOCKED: USER  keepresnum = 1 
DOCKED: USER  
DOCKED: REMARK  24 active torsions:
DOCKED: REMARK  status: ('A' for Active; 'I' for Inactive)
DOCKED: REMARK    1  A    between atoms: C_1  and  O_7 
DOCKED: REMARK    2  A    between atoms: C_2  and  O_12 
DOCKED: REMARK    3  A    between atoms: C_3  and  O_17 
DOCKED: REMARK    4  A    between atoms: C_4  and  O_22 
DOCKED: REMARK    5  A    between atoms: C_5  and  O_27 
DOCKED: REMARK    6  A    between atoms: C_6  and  O_32 
DOCKED: REMARK    7  A    between atoms: O_7  and  P_8 
DOCKED: REMARK    8  A    between atoms: P_8  and  O_10 
DOCKED: REMARK    9  A    between atoms: P_8  and  O_11 
DOCKED: REMARK   10  A    between atoms: O_12  and  P_13 
DOCKED: REMARK   11  A    between atoms: P_13  and  O_15 
DOCKED: REMARK   12  A    between atoms: P_13  and  O_16 
DOCKED: REMARK   13  A    between atoms: O_17  and  P_18 
DOCKED: REMARK   14  A    between atoms: P_18  and  O_20 
DOCKED: REMARK   15  A    between atoms: P_18  and  O_21 
DOCKED: REMARK   16  A    between atoms: O_22  and  P_23 
DOCKED: REMARK   17  A    between atoms: P_23  and  O_25 
DOCKED: REMARK   18  A    between atoms: P_23  and  O_26 
DOCKED: REMARK   19  A    between atoms: O_27  and  P_28 
DOCKED: REMARK   20  A    between atoms: P_28  and  O_30 
DOCKED: REMARK   21  A    between atoms: P_28  and  O_31 
DOCKED: REMARK   22  A    between atoms: O_32  and  P_33 
DOCKED: REMARK   23  A    between atoms: P_33  and  O_35 
DOCKED: REMARK   24  A    between atoms: P_33  and  O_36 
DOCKED: USER                              x       y       z     vdW  Elec       q    Type
DOCKED: USER                           _______ _______ _______ _____ _____    ______ ____
DOCKED: ROOT
DOCKED: ATOM      1  C   UNL d   1      21.254  11.498  -6.112 -0.14 -0.03    +0.194 C 
DOCKED: ATOM      2  C   UNL d   1      20.470  11.336  -7.416 -0.17 -0.05    +0.194 C 
DOCKED: ATOM      3  C   UNL d   1      19.067  11.937  -7.312 -0.16 -0.06    +0.194 C 
DOCKED: ATOM      4  C   UNL d   1      19.066  13.380  -6.813 -0.06 -0.04    +0.194 C 
DOCKED: ATOM      5  C   UNL d   1      19.928  13.611  -5.579 -0.06 -0.04    +0.194 C 
DOCKED: ATOM      6  C   UNL d   1      21.310  12.958  -5.658 -0.06 -0.03    +0.194 C 
DOCKED: ENDROOT
DOCKED: BRANCH   1   7
DOCKED: ATOM      7  O   UNL d   1      22.599  11.073  -6.344 -0.09 +0.03    -0.278 OA
DOCKED: BRANCH   7   8
DOCKED: ATOM      8  P   UNL d   1      23.620  12.109  -7.004 +0.00 -0.05    +0.473 P 
DOCKED: ATOM      9  O   UNL d   1      22.992  13.315  -7.609 -0.01 +0.03    -0.228 OA
DOCKED: BRANCH   8  10
DOCKED: ATOM     10  O   UNL d   1      24.637  12.454  -5.824 -0.00 +0.02    -0.303 OA
DOCKED: ATOM     11  H   UNL d   1      24.137  12.694  -5.022 +0.01 -0.01    +0.222 HD
DOCKED: ENDBRANCH   8  10
DOCKED: BRANCH   8  12
DOCKED: ATOM     12  O   UNL d   1      24.523  11.235  -7.976 -0.01 +0.04    -0.303 OA
DOCKED: ATOM     13  H   UNL d   1      24.012  10.816  -8.705 +0.03 -0.04    +0.222 HD
DOCKED: ENDBRANCH   8  12
DOCKED: ENDBRANCH   7   8
DOCKED: ENDBRANCH   1   7
DOCKED: BRANCH   2  14
DOCKED: ATOM     14  O   UNL d   1      21.175  12.003  -8.470 -0.05 +0.07    -0.278 OA
DOCKED: BRANCH  14  15
DOCKED: ATOM     15  P   UNL d   1      21.796  11.073  -9.616 -0.08 -0.18    +0.473 P 
DOCKED: ATOM     16  O   UNL d   1      22.194   9.687  -9.215 -0.19 +0.13    -0.228 OA
DOCKED: BRANCH  15  17
DOCKED: ATOM     17  O   UNL d   1      20.695  11.090 -10.768 -0.12 +0.14    -0.303 OA
DOCKED: ATOM     18  H   UNL d   1      19.812  11.296 -10.407 +0.06 -0.09    +0.222 HD
DOCKED: ENDBRANCH  15  17
DOCKED: BRANCH  15  19
DOCKED: ATOM     19  O   UNL d   1      22.949  11.957 -10.263 -0.01 +0.07    -0.303 OA
DOCKED: ATOM     20  H   UNL d   1      23.507  12.376  -9.583 +0.02 -0.04    +0.222 HD
DOCKED: ENDBRANCH  15  19
DOCKED: ENDBRANCH  14  15
DOCKED: ENDBRANCH   2  14
DOCKED: BRANCH   6  21
DOCKED: ATOM     21  O   UNL d   1      21.845  12.964  -4.336 -0.04 +0.03    -0.278 OA
DOCKED: BRANCH  21  22
DOCKED: ATOM     22  P   UNL d   1      21.337  11.891  -3.271 -0.11 -0.02    +0.473 P 
DOCKED: ATOM     23  O   UNL d   1      21.481  12.213  -1.822 -0.12 +0.00    -0.228 OA
DOCKED: BRANCH  22  24
DOCKED: ATOM     24  O   UNL d   1      19.842  11.636  -3.752 -0.21 +0.07    -0.303 OA
DOCKED: ATOM     25  H   UNL d   1      19.253  12.280  -3.282 -0.44 -0.12    +0.222 HD
DOCKED: ENDBRANCH  22  24
DOCKED: BRANCH  22  26
DOCKED: ATOM     26  O   UNL d   1      22.077  10.560  -3.772 -0.05 -0.04    -0.303 OA
DOCKED: ATOM     27  H   UNL d   1      22.884  10.807  -4.268 +0.05 +0.01    +0.222 HD
DOCKED: ENDBRANCH  22  26
DOCKED: ENDBRANCH  21  22
DOCKED: ENDBRANCH   6  21
DOCKED: BRANCH   3  28
DOCKED: ATOM     28  O   UNL d   1      18.526  11.991  -8.625 -0.11 +0.08    -0.278 OA
DOCKED: BRANCH  28  29
DOCKED: ATOM     29  P   UNL d   1      17.897  10.688  -9.291 -0.18 -0.15    +0.473 P 
DOCKED: ATOM     30  O   UNL d   1      17.297  10.882 -10.636 -0.23 +0.06    -0.228 OA
DOCKED: BRANCH  29  31
DOCKED: ATOM     31  O   UNL d   1      19.146   9.692  -9.190 -0.64 +0.21    -0.303 OA
DOCKED: ATOM     32  H   UNL d   1      19.415   9.432 -10.101 -0.43 -0.36    +0.222 HD
DOCKED: ENDBRANCH  29  31
DOCKED: BRANCH  29  33
DOCKED: ATOM     33  O   UNL d   1      16.931  10.159  -8.141 -0.56 +0.07    -0.303 OA
DOCKED: ATOM     34  H   UNL d   1      17.358  10.320  -7.264 -0.18 -0.09    +0.222 HD
DOCKED: ENDBRANCH  29  33
DOCKED: ENDBRANCH  28  29
DOCKED: ENDBRANCH   3  28
DOCKED: BRANCH   5  35
DOCKED: ATOM     35  O   UNL d   1      20.134  15.020  -5.509 -0.01 +0.05    -0.278 OA
DOCKED: BRANCH  35  36
DOCKED: ATOM     36  P   UNL d   1      19.614  15.847  -4.248 -0.02 -0.12    +0.473 P 
DOCKED: ATOM     37  O   UNL d   1      18.291  16.524  -4.421 -0.08 +0.10    -0.228 OA
DOCKED: BRANCH  36  38
DOCKED: ATOM     38  O   UNL d   1      19.638  14.743  -3.101 -0.09 +0.08    -0.303 OA
DOCKED: ATOM     39  H   UNL d   1      19.799  13.863  -3.505 +0.04 -0.06    +0.222 HD
DOCKED: ENDBRANCH  36  38
DOCKED: BRANCH  36  40
DOCKED: ATOM     40  O   UNL d   1      20.861  16.775  -3.912 -0.00 +0.05    -0.303 OA
DOCKED: ATOM     41  H   UNL d   1      20.583  17.691  -3.685 +0.01 -0.04    +0.222 HD
DOCKED: ENDBRANCH  36  40
DOCKED: ENDBRANCH  35  36
DOCKED: ENDBRANCH   5  35
DOCKED: BRANCH   4  42
DOCKED: ATOM     42  O   UNL d   1      17.717  13.691  -6.448 -0.06 +0.07    -0.278 OA
DOCKED: BRANCH  42  43
DOCKED: ATOM     43  P   UNL d   1      17.019  12.852  -5.286 -0.14 -0.14    +0.473 P 
DOCKED: ATOM     44  O   UNL d   1      17.168  11.370  -5.324 -0.35 +0.09    -0.228 OA
DOCKED: BRANCH  43  45
DOCKED: ATOM     45  O   UNL d   1      17.598  13.531  -3.968 -0.12 +0.10    -0.303 OA
DOCKED: ATOM     46  H   UNL d   1      18.337  13.011  -3.593 -0.40 -0.11    +0.222 HD
DOCKED: ENDBRANCH  43  45
DOCKED: BRANCH  43  47
DOCKED: ATOM     47  O   UNL d   1      15.511  13.395  -5.296 -0.21 +0.09    -0.303 OA
DOCKED: ATOM     48  H   UNL d   1      15.521  14.375  -5.299 +0.08 -0.10    +0.222 HD
DOCKED: ENDBRANCH  43  47
DOCKED: ENDBRANCH  42  43
DOCKED: ENDBRANCH   4  42
DOCKED: TORSDOF 24
DOCKED: TER
DOCKED: ENDMDL
________________________________________________________________________________


	BEGINNING GENETIC ALGORITHM DOCKING 34 of 100
Run: 34 Seed: 672301363 1631846077 [ Run 34 of 100 GA/GALS ]
Beginning LAMARCKIAN GENETIC ALGORITHM (LGA), with a maximum of 25000000 energy evaluations.

Final-Value: -17.525


	FINAL GENETIC ALGORITHM DOCKED STATE
	_______________________________________________


Detailed state:  trans -12.400 -2.143 17.224 quatxyzw -0.058872 0.177464 -0.502481 0.844129 center 0.035 0.082 -0.065 ntor 24 103.4230 109.5004 27.0698 132.7960 73.3323 91.5676 -108.8294 -58.7553 94.5569 -36.9847 63.5142 -127.6532 -67.7134 -75.3786 64.2090 -21.8102 -180.0000 -90.6381 66.4772 12.7052 178.4731 10.6505 16.1187 179.5074
State:	-12.400  -2.143  17.224  -0.110  0.331 -0.937 64.843    103.42  109.50   27.07  132.80   73.33   91.57 -108.83  -58.76   94.56  -36.98   63.51 -127.65  -67.71  -75.38   64.21  -21.81 -180.00  -90.64   66.48   12.71  178.47   10.65   16.12  179.51

DOCKED: MODEL       34
DOCKED: USER    Run = 34
DOCKED: USER    DPF = D:/Protein_go_brrr/autodock/final/mut_Y35F/IHP/dock.dpf
DOCKED: USER  
DOCKED: USER    Estimated Free Energy of Binding    =   +2.71 kcal/mol  [=(1)+(2)+(3)-(4)]
DOCKED: USER    
DOCKED: USER    (1) Final Intermolecular Energy     =   -4.45 kcal/mol
DOCKED: USER        vdW + Hbond + desolv Energy     =   -4.18 kcal/mol
DOCKED: USER        Electrostatic Energy            =   -0.26 kcal/mol
DOCKED: USER    (2) Final Total Internal Energy     =  -13.08 kcal/mol
DOCKED: USER    (3) Torsional Free Energy           =   +7.16 kcal/mol
DOCKED: USER    (4) Unbound System's Energy  [=(2)] =  -13.08 kcal/mol
DOCKED: USER    
DOCKED: USER    
DOCKED: USER    NEWDPF move IHP_ideal_opt.pdbqt
DOCKED: USER    NEWDPF about 0.035000 0.082000 -0.065000
DOCKED: USER    NEWDPF tran0 -12.399627 -2.142900 17.224374
DOCKED: USER    NEWDPF quaternion0 -0.058872 0.177464 -0.502481 0.844129
DOCKED: USER    NEWDPF axisangle0 -0.109807 0.331002 -0.937219 64.842521
DOCKED: USER    NEWDPF quat0 -0.109807 0.331002 -0.937219 64.842521
DOCKED: USER    NEWDPF dihe0 103.42 109.50 27.07 132.80 73.33 91.57 -108.83 -58.76 94.56 -36.98 63.51 -127.65 -67.71 -75.38 64.21 -21.81 -180.00 -90.64 66.48 12.71 178.47 10.65 16.12 179.51 
DOCKED: USER  keepresnum = 1 
DOCKED: USER  
DOCKED: REMARK  24 active torsions:
DOCKED: REMARK  status: ('A' for Active; 'I' for Inactive)
DOCKED: REMARK    1  A    between atoms: C_1  and  O_7 
DOCKED: REMARK    2  A    between atoms: C_2  and  O_12 
DOCKED: REMARK    3  A    between atoms: C_3  and  O_17 
DOCKED: REMARK    4  A    between atoms: C_4  and  O_22 
DOCKED: REMARK    5  A    between atoms: C_5  and  O_27 
DOCKED: REMARK    6  A    between atoms: C_6  and  O_32 
DOCKED: REMARK    7  A    between atoms: O_7  and  P_8 
DOCKED: REMARK    8  A    between atoms: P_8  and  O_10 
DOCKED: REMARK    9  A    between atoms: P_8  and  O_11 
DOCKED: REMARK   10  A    between atoms: O_12  and  P_13 
DOCKED: REMARK   11  A    between atoms: P_13  and  O_15 
DOCKED: REMARK   12  A    between atoms: P_13  and  O_16 
DOCKED: REMARK   13  A    between atoms: O_17  and  P_18 
DOCKED: REMARK   14  A    between atoms: P_18  and  O_20 
DOCKED: REMARK   15  A    between atoms: P_18  and  O_21 
DOCKED: REMARK   16  A    between atoms: O_22  and  P_23 
DOCKED: REMARK   17  A    between atoms: P_23  and  O_25 
DOCKED: REMARK   18  A    between atoms: P_23  and  O_26 
DOCKED: REMARK   19  A    between atoms: O_27  and  P_28 
DOCKED: REMARK   20  A    between atoms: P_28  and  O_30 
DOCKED: REMARK   21  A    between atoms: P_28  and  O_31 
DOCKED: REMARK   22  A    between atoms: O_32  and  P_33 
DOCKED: REMARK   23  A    between atoms: P_33  and  O_35 
DOCKED: REMARK   24  A    between atoms: P_33  and  O_36 
DOCKED: USER                              x       y       z     vdW  Elec       q    Type
DOCKED: USER                           _______ _______ _______ _____ _____    ______ ____
DOCKED: ROOT
DOCKED: ATOM      1  C   UNL d   1     -11.277  -1.759  18.480 -0.12 +0.01    +0.194 C 
DOCKED: ATOM      2  C   UNL d   1     -11.028  -3.082  17.752 -0.14 -0.00    +0.194 C 
DOCKED: ATOM      3  C   UNL d   1     -12.328  -3.856  17.525 -0.10 -0.03    +0.194 C 
DOCKED: ATOM      4  C   UNL d   1     -13.415  -3.022  16.851 -0.02 -0.03    +0.194 C 
DOCKED: ATOM      5  C   UNL d   1     -13.617  -1.647  17.474 -0.12 -0.01    +0.194 C 
DOCKED: ATOM      6  C   UNL d   1     -12.314  -0.898  17.758 -0.16 +0.00    +0.194 C 
DOCKED: ENDROOT
DOCKED: BRANCH   1   7
DOCKED: ATOM      7  O   UNL d   1     -10.051  -1.024  18.499 -0.12 -0.04    -0.278 OA
DOCKED: BRANCH   7   8
DOCKED: ATOM      8  P   UNL d   1      -8.759  -1.718  19.132 -0.00 +0.07    +0.473 P 
DOCKED: ATOM      9  O   UNL d   1      -9.034  -2.914  19.975 -0.03 -0.01    -0.228 OA
DOCKED: BRANCH   8  10
DOCKED: ATOM     10  O   UNL d   1      -7.834  -2.037  17.872 -0.58 -0.07    -0.303 OA
DOCKED: ATOM     11  H   UNL d   1      -8.338  -2.559  17.221 +0.09 +0.04    +0.222 HD
DOCKED: ENDBRANCH   8  10
DOCKED: BRANCH   8  12
DOCKED: ATOM     12  O   UNL d   1      -7.962  -0.540  19.840 -0.23 -0.05    -0.303 OA
DOCKED: ATOM     13  H   UNL d   1      -8.456  -0.135  20.588 +0.03 +0.02    +0.222 HD
DOCKED: ENDBRANCH   8  12
DOCKED: ENDBRANCH   7   8
DOCKED: ENDBRANCH   1   7
DOCKED: BRANCH   2  14
DOCKED: ATOM     14  O   UNL d   1     -10.430  -2.809  16.479 -0.25 -0.02    -0.278 OA
DOCKED: BRANCH  14  15
DOCKED: ATOM     15  P   UNL d   1      -9.340  -3.861  15.960 -0.29 +0.01    +0.473 P 
DOCKED: ATOM     16  O   UNL d   1      -8.712  -4.743  16.994 -0.17 +0.01    -0.228 OA
DOCKED: BRANCH  15  17
DOCKED: ATOM     17  O   UNL d   1     -10.101  -4.682  14.827 -0.47 +0.07    -0.303 OA
DOCKED: ATOM     18  H   UNL d   1     -10.804  -5.241  15.210 -0.25 -0.17    +0.222 HD
DOCKED: ENDBRANCH  15  17
DOCKED: BRANCH  15  19
DOCKED: ATOM     19  O   UNL d   1      -8.327  -2.989  15.097 -0.30 -0.07    -0.303 OA
DOCKED: ATOM     20  H   UNL d   1      -7.762  -2.429  15.661 +0.11 +0.05    +0.222 HD
DOCKED: ENDBRANCH  15  19
DOCKED: ENDBRANCH  14  15
DOCKED: ENDBRANCH   2  14
DOCKED: BRANCH   6  21
DOCKED: ATOM     21  O   UNL d   1     -12.640   0.182  18.630 -0.06 -0.01    -0.278 OA
DOCKED: BRANCH  21  22
DOCKED: ATOM     22  P   UNL d   1     -12.918  -0.104  20.175 +0.00 +0.00    +0.473 P 
DOCKED: ATOM     23  O   UNL d   1     -11.784   0.041  21.134 -0.01 -0.00    -0.228 OA
DOCKED: BRANCH  22  24
DOCKED: ATOM     24  O   UNL d   1     -14.162   0.845  20.464 -0.00 -0.00    -0.303 OA
DOCKED: ATOM     25  H   UNL d   1     -14.463   1.229  19.601 +0.02 +0.00    +0.222 HD
DOCKED: ENDBRANCH  22  24
DOCKED: BRANCH  22  26
DOCKED: ATOM     26  O   UNL d   1     -13.610  -1.549  20.119 -0.00 +0.00    -0.303 OA
DOCKED: ATOM     27  H   UNL d   1     -14.561  -1.443  19.914 +0.02 -0.00    +0.222 HD
DOCKED: ENDBRANCH  22  26
DOCKED: ENDBRANCH  21  22
DOCKED: ENDBRANCH   6  21
DOCKED: BRANCH   3  28
DOCKED: ATOM     28  O   UNL d   1     -12.044  -4.912  16.615 -0.11 +0.12    -0.278 OA
DOCKED: BRANCH  28  29
DOCKED: ATOM     29  P   UNL d   1     -12.302  -6.426  17.035 -0.03 -0.18    +0.473 P 
DOCKED: ATOM     30  O   UNL d   1     -11.775  -6.821  18.367 -0.01 +0.03    -0.228 OA
DOCKED: BRANCH  29  31
DOCKED: ATOM     31  O   UNL d   1     -13.887  -6.508  16.828 -0.06 +0.12    -0.303 OA
DOCKED: ATOM     32  H   UNL d   1     -14.312  -5.815  17.385 +0.02 -0.06    +0.222 HD
DOCKED: ENDBRANCH  29  31
DOCKED: BRANCH  29  33
DOCKED: ATOM     33  O   UNL d   1     -11.742  -7.222  15.775 -0.03 +0.20    -0.303 OA
DOCKED: ATOM     34  H   UNL d   1     -11.399  -6.574  15.112 -0.51 -0.31    +0.222 HD
DOCKED: ENDBRANCH  29  33
DOCKED: ENDBRANCH  28  29
DOCKED: ENDBRANCH   3  28
DOCKED: BRANCH   5  35
DOCKED: ATOM     35  O   UNL d   1     -14.336  -0.885  16.506 -0.14 +0.02    -0.278 OA
DOCKED: BRANCH  35  36
DOCKED: ATOM     36  P   UNL d   1     -15.390   0.218  16.971 -0.05 +0.00    +0.473 P 
DOCKED: ATOM     37  O   UNL d   1     -16.691   0.220  16.232 -0.06 -0.01    -0.228 OA
DOCKED: BRANCH  36  38
DOCKED: ATOM     38  O   UNL d   1     -15.522  -0.093  18.527 -0.01 +0.00    -0.303 OA
DOCKED: ATOM     39  H   UNL d   1     -14.706  -0.542  18.835 +0.03 -0.00    +0.222 HD
DOCKED: ENDBRANCH  36  38
DOCKED: BRANCH  36  40
DOCKED: ATOM     40  O   UNL d   1     -14.529   1.554  16.919 -0.05 -0.01    -0.303 OA
DOCKED: ATOM     41  H   UNL d   1     -13.943   1.641  17.704 +0.04 +0.01    +0.222 HD
DOCKED: ENDBRANCH  36  40
DOCKED: ENDBRANCH  35  36
DOCKED: ENDBRANCH   5  35
DOCKED: BRANCH   4  42
DOCKED: ATOM     42  O   UNL d   1     -14.644  -3.739  17.006 -0.08 +0.06    -0.278 OA
DOCKED: BRANCH  42  43
DOCKED: ATOM     43  P   UNL d   1     -15.277  -3.879  18.463 -0.00 -0.05    +0.473 P 
DOCKED: ATOM     44  O   UNL d   1     -14.359  -4.238  19.580 -0.01 +0.02    -0.228 OA
DOCKED: BRANCH  43  45
DOCKED: ATOM     45  O   UNL d   1     -16.021  -2.485  18.656 -0.01 +0.02    -0.303 OA
DOCKED: ATOM     46  H   UNL d   1     -15.792  -1.856  17.943 +0.03 -0.01    +0.222 HD
DOCKED: ENDBRANCH  43  45
DOCKED: BRANCH  43  47
DOCKED: ATOM     47  O   UNL d   1     -16.510  -4.877  18.233 -0.00 +0.03    -0.303 OA
DOCKED: ATOM     48  H   UNL d   1     -16.196  -5.674  17.758 +0.01 -0.03    +0.222 HD
DOCKED: ENDBRANCH  43  47
DOCKED: ENDBRANCH  42  43
DOCKED: ENDBRANCH   4  42
DOCKED: TORSDOF 24
DOCKED: TER
DOCKED: ENDMDL
________________________________________________________________________________


	BEGINNING GENETIC ALGORITHM DOCKING 35 of 100
Run: 35 Seed: 920130056 428784016 [ Run 35 of 100 GA/GALS ]
Beginning LAMARCKIAN GENETIC ALGORITHM (LGA), with a maximum of 25000000 energy evaluations.

Final-Value: -18.096


	FINAL GENETIC ALGORITHM DOCKED STATE
	_______________________________________________


Detailed state:  trans 6.866 -12.536 7.243 quatxyzw 0.049279 0.367649 -0.846066 -0.382856 center 0.035 0.082 -0.065 ntor 24 -150.6722 -11.0141 104.7969 132.0296 18.1472 -97.8802 -51.9067 1.5808 119.2474 124.1020 5.1666 151.6907 77.1030 103.5544 -66.2585 179.1517 96.5239 -175.0881 -13.8259 -2.2564 -12.9179 13.3979 166.8894 -7.8244
State:	  6.866 -12.536   7.243   0.053  0.398 -0.916 -134.979   -150.67  -11.01  104.80  132.03   18.15  -97.88  -51.91    1.58  119.25  124.10    5.17  151.69   77.10  103.55  -66.26  179.15   96.52 -175.09  -13.83   -2.26  -12.92   13.40  166.89   -7.82

DOCKED: MODEL       35
DOCKED: USER    Run = 35
DOCKED: USER    DPF = D:/Protein_go_brrr/autodock/final/mut_Y35F/IHP/dock.dpf
DOCKED: USER  
DOCKED: USER    Estimated Free Energy of Binding    =   +2.73 kcal/mol  [=(1)+(2)+(3)-(4)]
DOCKED: USER    
DOCKED: USER    (1) Final Intermolecular Energy     =   -4.43 kcal/mol
DOCKED: USER        vdW + Hbond + desolv Energy     =   -4.34 kcal/mol
DOCKED: USER        Electrostatic Energy            =   -0.09 kcal/mol
DOCKED: USER    (2) Final Total Internal Energy     =  -13.67 kcal/mol
DOCKED: USER    (3) Torsional Free Energy           =   +7.16 kcal/mol
DOCKED: USER    (4) Unbound System's Energy  [=(2)] =  -13.67 kcal/mol
DOCKED: USER    
DOCKED: USER    
DOCKED: USER    NEWDPF move IHP_ideal_opt.pdbqt
DOCKED: USER    NEWDPF about 0.035000 0.082000 -0.065000
DOCKED: USER    NEWDPF tran0 6.865703 -12.535650 7.243196
DOCKED: USER    NEWDPF quaternion0 0.049279 0.367649 -0.846066 -0.382856
DOCKED: USER    NEWDPF axisangle0 0.053344 0.397971 -0.915846 -134.978550
DOCKED: USER    NEWDPF quat0 0.053344 0.397971 -0.915846 -134.978550
DOCKED: USER    NEWDPF dihe0 -150.67 -11.01 104.80 132.03 18.15 -97.88 -51.91 1.58 119.25 124.10 5.17 151.69 77.10 103.55 -66.26 179.15 96.52 -175.09 -13.83 -2.26 -12.92 13.40 166.89 -7.82 
DOCKED: USER  keepresnum = 1 
DOCKED: USER  
DOCKED: REMARK  24 active torsions:
DOCKED: REMARK  status: ('A' for Active; 'I' for Inactive)
DOCKED: REMARK    1  A    between atoms: C_1  and  O_7 
DOCKED: REMARK    2  A    between atoms: C_2  and  O_12 
DOCKED: REMARK    3  A    between atoms: C_3  and  O_17 
DOCKED: REMARK    4  A    between atoms: C_4  and  O_22 
DOCKED: REMARK    5  A    between atoms: C_5  and  O_27 
DOCKED: REMARK    6  A    between atoms: C_6  and  O_32 
DOCKED: REMARK    7  A    between atoms: O_7  and  P_8 
DOCKED: REMARK    8  A    between atoms: P_8  and  O_10 
DOCKED: REMARK    9  A    between atoms: P_8  and  O_11 
DOCKED: REMARK   10  A    between atoms: O_12  and  P_13 
DOCKED: REMARK   11  A    between atoms: P_13  and  O_15 
DOCKED: REMARK   12  A    between atoms: P_13  and  O_16 
DOCKED: REMARK   13  A    between atoms: O_17  and  P_18 
DOCKED: REMARK   14  A    between atoms: P_18  and  O_20 
DOCKED: REMARK   15  A    between atoms: P_18  and  O_21 
DOCKED: REMARK   16  A    between atoms: O_22  and  P_23 
DOCKED: REMARK   17  A    between atoms: P_23  and  O_25 
DOCKED: REMARK   18  A    between atoms: P_23  and  O_26 
DOCKED: REMARK   19  A    between atoms: O_27  and  P_28 
DOCKED: REMARK   20  A    between atoms: P_28  and  O_30 
DOCKED: REMARK   21  A    between atoms: P_28  and  O_31 
DOCKED: REMARK   22  A    between atoms: O_32  and  P_33 
DOCKED: REMARK   23  A    between atoms: P_33  and  O_35 
DOCKED: REMARK   24  A    between atoms: P_33  and  O_36 
DOCKED: USER                              x       y       z     vdW  Elec       q    Type
DOCKED: USER                           _______ _______ _______ _____ _____    ______ ____
DOCKED: ROOT
DOCKED: ATOM      1  C   UNL d   1       5.535 -13.436   7.878 -0.02 -0.02    +0.194 C 
DOCKED: ATOM      2  C   UNL d   1       5.788 -12.079   8.536 -0.03 -0.02    +0.194 C 
DOCKED: ATOM      3  C   UNL d   1       7.279 -11.838   8.784 -0.01 -0.02    +0.194 C 
DOCKED: ATOM      4  C   UNL d   1       8.137 -12.044   7.538 -0.04 -0.02    +0.194 C 
DOCKED: ATOM      5  C   UNL d   1       7.837 -13.334   6.785 -0.03 -0.03    +0.194 C 
DOCKED: ATOM      6  C   UNL d   1       6.344 -13.606   6.591 -0.06 -0.03    +0.194 C 
DOCKED: ENDROOT
DOCKED: BRANCH   1   7
DOCKED: ATOM      7  O   UNL d   1       4.152 -13.510   7.526 -0.04 +0.04    -0.278 OA
DOCKED: BRANCH   7   8
DOCKED: ATOM      8  P   UNL d   1       3.363 -14.866   7.828 -0.03 -0.07    +0.473 P 
DOCKED: ATOM      9  O   UNL d   1       2.087 -14.699   8.576 -0.04 +0.02    -0.228 OA
DOCKED: BRANCH   8  10
DOCKED: ATOM     10  O   UNL d   1       3.167 -15.528   6.390 -0.12 +0.08    -0.303 OA
DOCKED: ATOM     11  H   UNL d   1       4.025 -15.570   5.930 +0.04 -0.06    +0.222 HD
DOCKED: ENDBRANCH   8  10
DOCKED: BRANCH   8  12
DOCKED: ATOM     12  O   UNL d   1       4.436 -15.829   8.495 -0.01 +0.03    -0.303 OA
DOCKED: ATOM     13  H   UNL d   1       5.234 -15.963   7.934 +0.02 -0.02    +0.222 HD
DOCKED: ENDBRANCH   8  12
DOCKED: ENDBRANCH   7   8
DOCKED: ENDBRANCH   1   7
DOCKED: BRANCH   2  14
DOCKED: ATOM     14  O   UNL d   1       5.296 -11.044   7.676 -0.08 +0.03    -0.278 OA
DOCKED: BRANCH  14  15
DOCKED: ATOM     15  P   UNL d   1       4.327  -9.958   8.344 -0.09 -0.03    +0.473 P 
DOCKED: ATOM     16  O   UNL d   1       4.197  -8.646   7.635 -0.78 -0.05    -0.228 OA
DOCKED: BRANCH  15  17
DOCKED: ATOM     17  O   UNL d   1       2.936 -10.719   8.495 -0.11 +0.03    -0.303 OA
DOCKED: ATOM     18  H   UNL d   1       3.032 -11.669   8.292 +0.07 -0.03    +0.222 HD
DOCKED: ENDBRANCH  15  17
DOCKED: BRANCH  15  19
DOCKED: ATOM     19  O   UNL d   1       4.811  -9.874   9.858 -0.03 +0.04    -0.303 OA
DOCKED: ATOM     20  H   UNL d   1       5.669  -9.418   9.937 +0.05 -0.03    +0.222 HD
DOCKED: ENDBRANCH  15  19
DOCKED: ENDBRANCH  14  15
DOCKED: ENDBRANCH   2  14
DOCKED: BRANCH   6  21
DOCKED: ATOM     21  O   UNL d   1       6.220 -14.970   6.196 -0.03 +0.04    -0.278 OA
DOCKED: BRANCH  21  22
DOCKED: ATOM     22  P   UNL d   1       5.659 -15.328   4.747 -0.11 -0.12    +0.473 P 
DOCKED: ATOM     23  O   UNL d   1       4.582 -14.468   4.176 -0.18 +0.11    -0.228 OA
DOCKED: BRANCH  22  24
DOCKED: ATOM     24  O   UNL d   1       6.995 -15.384   3.884 -0.10 +0.05    -0.303 OA
DOCKED: ATOM     25  H   UNL d   1       7.528 -14.573   4.088 +0.07 -0.04    +0.222 HD
DOCKED: ENDBRANCH  22  24
DOCKED: BRANCH  22  26
DOCKED: ATOM     26  O   UNL d   1       5.304 -16.883   4.909 -0.06 +0.06    -0.303 OA
DOCKED: ATOM     27  H   UNL d   1       4.390 -16.971   5.248 +0.01 -0.06    +0.222 HD
DOCKED: ENDBRANCH  22  26
DOCKED: ENDBRANCH  21  22
DOCKED: ENDBRANCH   6  21
DOCKED: BRANCH   3  28
DOCKED: ATOM     28  O   UNL d   1       7.440 -10.468   9.130 -0.02 +0.02    -0.278 OA
DOCKED: BRANCH  28  29
DOCKED: ATOM     29  P   UNL d   1       8.149 -10.062  10.497 +0.01 -0.02    +0.473 P 
DOCKED: ATOM     30  O   UNL d   1       8.815  -8.734  10.503 -0.02 +0.00    -0.228 OA
DOCKED: BRANCH  29  31
DOCKED: ATOM     31  O   UNL d   1       6.932 -10.269  11.515 -0.00 +0.03    -0.303 OA
DOCKED: ATOM     32  H   UNL d   1       6.144 -10.568  11.005 +0.01 -0.02    +0.222 HD
DOCKED: ENDBRANCH  29  31
DOCKED: BRANCH  29  33
DOCKED: ATOM     33  O   UNL d   1       9.068 -11.330  10.786 +0.00 +0.01    -0.303 OA
DOCKED: ATOM     34  H   UNL d   1       9.710 -11.437  10.042 +0.02 +0.00    +0.222 HD
DOCKED: ENDBRANCH  29  33
DOCKED: ENDBRANCH  28  29
DOCKED: ENDBRANCH   3  28
DOCKED: BRANCH   5  35
DOCKED: ATOM     35  O   UNL d   1       8.405 -13.166   5.487 -0.08 +0.05    -0.278 OA
DOCKED: BRANCH  35  36
DOCKED: ATOM     36  P   UNL d   1       7.874 -12.014   4.520 -0.18 -0.08    +0.473 P 
DOCKED: ATOM     37  O   UNL d   1       8.923 -11.310   3.719 -0.97 +0.10    -0.228 OA
DOCKED: BRANCH  36  38
DOCKED: ATOM     38  O   UNL d   1       6.795 -12.793   3.646 -0.57 +0.03    -0.303 OA
DOCKED: ATOM     39  H   UNL d   1       6.201 -13.296   4.243 -0.14 -0.07    +0.222 HD
DOCKED: ENDBRANCH  36  38
DOCKED: BRANCH  36  40
DOCKED: ATOM     40  O   UNL d   1       6.998 -11.122   5.503 -0.28 +0.04    -0.303 OA
DOCKED: ATOM     41  H   UNL d   1       7.552 -10.491   6.015 +0.09 -0.05    +0.222 HD
DOCKED: ENDBRANCH  36  40
DOCKED: ENDBRANCH  35  36
DOCKED: ENDBRANCH   5  35
DOCKED: BRANCH   4  42
DOCKED: ATOM     42  O   UNL d   1       9.497 -12.120   7.978 -0.02 +0.02    -0.278 OA
DOCKED: BRANCH  42  43
DOCKED: ATOM     43  P   UNL d   1      10.540 -11.035   7.451 -0.09 -0.03    +0.473 P 
DOCKED: ATOM     44  O   UNL d   1      11.820 -11.536   6.876 -0.15 +0.01    -0.228 OA
DOCKED: BRANCH  43  45
DOCKED: ATOM     45  O   UNL d   1       9.665 -10.173   6.439 -0.13 +0.19    -0.303 OA
DOCKED: ATOM     46  H   UNL d   1       9.416 -10.693   5.649 +0.00 -0.17    +0.222 HD
DOCKED: ENDBRANCH  43  45
DOCKED: BRANCH  43  47
DOCKED: ATOM     47  O   UNL d   1      10.684 -10.032   8.693 -0.14 -0.08    -0.303 OA
DOCKED: ATOM     48  H   UNL d   1       9.847 -10.025   9.201 +0.04 +0.02    +0.222 HD
DOCKED: ENDBRANCH  43  47
DOCKED: ENDBRANCH  42  43
DOCKED: ENDBRANCH   4  42
DOCKED: TORSDOF 24
DOCKED: TER
DOCKED: ENDMDL
________________________________________________________________________________


	BEGINNING GENETIC ALGORITHM DOCKING 36 of 100
Run: 36 Seed: 1962739215 1847585628 [ Run 36 of 100 GA/GALS ]
Beginning LAMARCKIAN GENETIC ALGORITHM (LGA), with a maximum of 25000000 energy evaluations.

Final-Value: -20.029


	FINAL GENETIC ALGORITHM DOCKED STATE
	_______________________________________________


Detailed state:  trans -8.786 13.773 1.236 quatxyzw 0.237868 0.962584 -0.129788 0.002520 center 0.035 0.082 -0.065 ntor 24 -120.3073 -20.5272 156.6076 3.9037 -17.7997 179.6362 35.6708 -179.1460 17.9485 9.1608 -26.2457 69.4433 -169.0709 180.0000 -130.1566 119.8581 172.6749 -82.6680 52.8984 -0.2563 -56.5081 -18.8810 29.3860 -143.4459
State:	 -8.786  13.773   1.236   0.238  0.963 -0.130 179.711   -120.31  -20.53  156.61    3.90  -17.80  179.64   35.67 -179.15   17.95    9.16  -26.25   69.44 -169.07  180.00 -130.16  119.86  172.67  -82.67   52.90   -0.26  -56.51  -18.88   29.39 -143.45

DOCKED: MODEL       36
DOCKED: USER    Run = 36
DOCKED: USER    DPF = D:/Protein_go_brrr/autodock/final/mut_Y35F/IHP/dock.dpf
DOCKED: USER  
DOCKED: USER    Estimated Free Energy of Binding    =   +1.11 kcal/mol  [=(1)+(2)+(3)-(4)]
DOCKED: USER    
DOCKED: USER    (1) Final Intermolecular Energy     =   -6.05 kcal/mol
DOCKED: USER        vdW + Hbond + desolv Energy     =   -5.66 kcal/mol
DOCKED: USER        Electrostatic Energy            =   -0.39 kcal/mol
DOCKED: USER    (2) Final Total Internal Energy     =  -13.98 kcal/mol
DOCKED: USER    (3) Torsional Free Energy           =   +7.16 kcal/mol
DOCKED: USER    (4) Unbound System's Energy  [=(2)] =  -13.98 kcal/mol
DOCKED: USER    
DOCKED: USER    
DOCKED: USER    NEWDPF move IHP_ideal_opt.pdbqt
DOCKED: USER    NEWDPF about 0.035000 0.082000 -0.065000
DOCKED: USER    NEWDPF tran0 -8.785813 13.773121 1.236252
DOCKED: USER    NEWDPF quaternion0 0.237868 0.962584 -0.129788 0.002520
DOCKED: USER    NEWDPF axisangle0 0.237869 0.962587 -0.129789 179.711192
DOCKED: USER    NEWDPF quat0 0.237869 0.962587 -0.129789 179.711192
DOCKED: USER    NEWDPF dihe0 -120.31 -20.53 156.61 3.90 -17.80 179.64 35.67 -179.15 17.95 9.16 -26.25 69.44 -169.07 180.00 -130.16 119.86 172.67 -82.67 52.90 -0.26 -56.51 -18.88 29.39 -143.45 
DOCKED: USER  keepresnum = 1 
DOCKED: USER  
DOCKED: REMARK  24 active torsions:
DOCKED: REMARK  status: ('A' for Active; 'I' for Inactive)
DOCKED: REMARK    1  A    between atoms: C_1  and  O_7 
DOCKED: REMARK    2  A    between atoms: C_2  and  O_12 
DOCKED: REMARK    3  A    between atoms: C_3  and  O_17 
DOCKED: REMARK    4  A    between atoms: C_4  and  O_22 
DOCKED: REMARK    5  A    between atoms: C_5  and  O_27 
DOCKED: REMARK    6  A    between atoms: C_6  and  O_32 
DOCKED: REMARK    7  A    between atoms: O_7  and  P_8 
DOCKED: REMARK    8  A    between atoms: P_8  and  O_10 
DOCKED: REMARK    9  A    between atoms: P_8  and  O_11 
DOCKED: REMARK   10  A    between atoms: O_12  and  P_13 
DOCKED: REMARK   11  A    between atoms: P_13  and  O_15 
DOCKED: REMARK   12  A    between atoms: P_13  and  O_16 
DOCKED: REMARK   13  A    between atoms: O_17  and  P_18 
DOCKED: REMARK   14  A    between atoms: P_18  and  O_20 
DOCKED: REMARK   15  A    between atoms: P_18  and  O_21 
DOCKED: REMARK   16  A    between atoms: O_22  and  P_23 
DOCKED: REMARK   17  A    between atoms: P_23  and  O_25 
DOCKED: REMARK   18  A    between atoms: P_23  and  O_26 
DOCKED: REMARK   19  A    between atoms: O_27  and  P_28 
DOCKED: REMARK   20  A    between atoms: P_28  and  O_30 
DOCKED: REMARK   21  A    between atoms: P_28  and  O_31 
DOCKED: REMARK   22  A    between atoms: O_32  and  P_33 
DOCKED: REMARK   23  A    between atoms: P_33  and  O_35 
DOCKED: REMARK   24  A    between atoms: P_33  and  O_36 
DOCKED: USER                              x       y       z     vdW  Elec       q    Type
DOCKED: USER                           _______ _______ _______ _____ _____    ______ ____
DOCKED: ROOT
DOCKED: ATOM      1  C   UNL d   1     -10.356  13.393   0.624 -0.07 -0.02    +0.194 C 
DOCKED: ATOM      2  C   UNL d   1      -9.592  12.227   1.253 -0.11 -0.02    +0.194 C 
DOCKED: ATOM      3  C   UNL d   1      -8.122  12.216   0.827 -0.16 -0.03    +0.194 C 
DOCKED: ATOM      4  C   UNL d   1      -7.421  13.554   1.053 -0.21 -0.03    +0.194 C 
DOCKED: ATOM      5  C   UNL d   1      -8.203  14.758   0.542 -0.12 -0.04    +0.194 C 
DOCKED: ATOM      6  C   UNL d   1      -9.686  14.737   0.916 -0.07 -0.03    +0.194 C 
DOCKED: ENDROOT
DOCKED: BRANCH   1   7
DOCKED: ATOM      7  O   UNL d   1     -11.663  13.434   1.201 -0.05 +0.02    -0.278 OA
DOCKED: BRANCH   7   8
DOCKED: ATOM      8  P   UNL d   1     -12.690  12.266   0.837 +0.00 -0.02    +0.473 P 
DOCKED: ATOM      9  O   UNL d   1     -13.918  12.707   0.121 -0.00 +0.01    -0.228 OA
DOCKED: BRANCH   8  10
DOCKED: ATOM     10  O   UNL d   1     -11.815  11.228   0.001 -0.01 +0.02    -0.303 OA
DOCKED: ATOM     11  H   UNL d   1     -11.311  10.658   0.612 +0.04 -0.02    +0.222 HD
DOCKED: ENDBRANCH   8  10
DOCKED: BRANCH   8  12
DOCKED: ATOM     12  O   UNL d   1     -12.925  11.483   2.199 -0.02 +0.00    -0.303 OA
DOCKED: ATOM     13  H   UNL d   1     -12.117  11.025   2.525 +0.04 -0.00    +0.222 HD
DOCKED: ENDBRANCH   8  12
DOCKED: ENDBRANCH   7   8
DOCKED: ENDBRANCH   1   7
DOCKED: BRANCH   2  14
DOCKED: ATOM     14  O   UNL d   1      -9.653  12.344   2.680 -0.66 -0.04    -0.278 OA
DOCKED: BRANCH  14  15
DOCKED: ATOM     15  P   UNL d   1     -10.073  11.028   3.489 -0.17 -0.00    +0.473 P 
DOCKED: ATOM     16  O   UNL d   1     -11.245  11.151   4.411 -0.15 -0.01    -0.228 OA
DOCKED: BRANCH  15  17
DOCKED: ATOM     17  O   UNL d   1     -10.291   9.929   2.356 +0.04 +0.07    -0.303 OA
DOCKED: ATOM     18  H   UNL d   1      -9.469   9.777   1.851 -0.25 -0.08    +0.222 HD
DOCKED: ENDBRANCH  15  17
DOCKED: BRANCH  15  19
DOCKED: ATOM     19  O   UNL d   1      -8.721  10.528   4.162 -0.33 +0.01    -0.303 OA
DOCKED: ATOM     20  H   UNL d   1      -8.019  10.388   3.500 +0.15 -0.01    +0.222 HD
DOCKED: ENDBRANCH  15  19
DOCKED: ENDBRANCH  14  15
DOCKED: ENDBRANCH   2  14
DOCKED: BRANCH   6  21
DOCKED: ATOM     21  O   UNL d   1     -10.331  15.712   0.099 -0.04 +0.04    -0.278 OA
DOCKED: BRANCH  21  22
DOCKED: ATOM     22  P   UNL d   1     -11.738  16.315   0.547 -0.02 -0.05    +0.473 P 
DOCKED: ATOM     23  O   UNL d   1     -12.973  15.769  -0.086 -0.01 +0.02    -0.228 OA
DOCKED: BRANCH  22  24
DOCKED: ATOM     24  O   UNL d   1     -11.672  16.155   2.129 -0.07 +0.05    -0.303 OA
DOCKED: ATOM     25  H   UNL d   1     -11.955  15.233   2.357 +0.02 -0.03    +0.222 HD
DOCKED: ENDBRANCH  22  24
DOCKED: BRANCH  22  26
DOCKED: ATOM     26  O   UNL d   1     -11.490  17.889   0.364 -0.01 +0.03    -0.303 OA
DOCKED: ATOM     27  H   UNL d   1     -10.612  18.031  -0.044 +0.01 -0.03    +0.222 HD
DOCKED: ENDBRANCH  22  26
DOCKED: ENDBRANCH  21  22
DOCKED: ENDBRANCH   6  21
DOCKED: BRANCH   3  28
DOCKED: ATOM     28  O   UNL d   1      -7.441  11.288   1.662 -0.20 +0.04    -0.278 OA
DOCKED: BRANCH  28  29
DOCKED: ATOM     29  P   UNL d   1      -7.288   9.767   1.215 -0.23 -0.10    +0.473 P 
DOCKED: ATOM     30  O   UNL d   1      -6.028   9.433   0.502 -0.43 +0.07    -0.228 OA
DOCKED: BRANCH  29  31
DOCKED: ATOM     31  O   UNL d   1      -7.544   9.038   2.617 -0.15 +0.07    -0.303 OA
DOCKED: ATOM     32  H   UNL d   1      -8.513   8.896   2.724 -0.43 -0.09    +0.222 HD
DOCKED: ENDBRANCH  29  31
DOCKED: BRANCH  29  33
DOCKED: ATOM     33  O   UNL d   1      -8.649   9.510   0.431 -0.13 +0.08    -0.303 OA
DOCKED: ATOM     34  H   UNL d   1      -9.144   8.779   0.877 -0.43 -0.12    +0.222 HD
DOCKED: ENDBRANCH  29  33
DOCKED: ENDBRANCH  28  29
DOCKED: ENDBRANCH   3  28
DOCKED: BRANCH   5  35
DOCKED: ATOM     35  O   UNL d   1      -7.625  15.894   1.182 -0.12 +0.06    -0.278 OA
DOCKED: BRANCH  35  36
DOCKED: ATOM     36  P   UNL d   1      -7.832  17.353   0.571 -0.03 -0.10    +0.473 P 
DOCKED: ATOM     37  O   UNL d   1      -6.655  18.270   0.678 -0.04 +0.05    -0.228 OA
DOCKED: BRANCH  36  38
DOCKED: ATOM     38  O   UNL d   1      -8.269  17.022  -0.924 -0.01 +0.06    -0.303 OA
DOCKED: ATOM     39  H   UNL d   1      -7.613  16.410  -1.323 +0.04 -0.06    +0.222 HD
DOCKED: ENDBRANCH  36  38
DOCKED: BRANCH  36  40
DOCKED: ATOM     40  O   UNL d   1      -9.180  17.825   1.269 -0.06 +0.05    -0.303 OA
DOCKED: ATOM     41  H   UNL d   1      -9.788  17.071   1.435 +0.03 -0.04    +0.222 HD
DOCKED: ENDBRANCH  36  40
DOCKED: ENDBRANCH  35  36
DOCKED: ENDBRANCH   5  35
DOCKED: BRANCH   4  42
DOCKED: ATOM     42  O   UNL d   1      -6.193  13.507   0.319 -0.02 +0.08    -0.278 OA
DOCKED: BRANCH  42  43
DOCKED: ATOM     43  P   UNL d   1      -6.074  14.335  -1.039 -0.18 -0.24    +0.473 P 
DOCKED: ATOM     44  O   UNL d   1      -7.282  14.405  -1.909 -0.07 +0.09    -0.228 OA
DOCKED: BRANCH  43  45
DOCKED: ATOM     45  O   UNL d   1      -5.548  15.751  -0.540 -0.16 +0.15    -0.303 OA
DOCKED: ATOM     46  H   UNL d   1      -6.277  16.400  -0.470 +0.07 -0.08    +0.222 HD
DOCKED: ENDBRANCH  43  45
DOCKED: BRANCH  43  47
DOCKED: ATOM     47  O   UNL d   1      -4.762  13.724  -1.727 -0.41 +0.32    -0.303 OA
DOCKED: ATOM     48  H   UNL d   1      -4.053  14.401  -1.728 -0.49 -0.48    +0.222 HD
DOCKED: ENDBRANCH  43  47
DOCKED: ENDBRANCH  42  43
DOCKED: ENDBRANCH   4  42
DOCKED: TORSDOF 24
DOCKED: TER
DOCKED: ENDMDL
________________________________________________________________________________


	BEGINNING GENETIC ALGORITHM DOCKING 37 of 100
Run: 37 Seed: 1847344520 657622133 [ Run 37 of 100 GA/GALS ]
Beginning LAMARCKIAN GENETIC ALGORITHM (LGA), with a maximum of 25000000 energy evaluations.

Final-Value: -19.955


	FINAL GENETIC ALGORITHM DOCKED STATE
	_______________________________________________


Detailed state:  trans 10.324 15.924 3.526 quatxyzw 0.421787 -0.702858 -0.125576 0.558854 center 0.035 0.082 -0.065 ntor 24 119.4848 106.2246 138.7371 2.4004 63.5768 -120.5875 -14.4134 -90.8782 33.1157 77.0412 -156.6664 164.1968 -33.3604 73.9814 -68.2323 -86.2659 -149.5828 167.5874 35.9806 -26.9906 172.9772 12.4300 5.1635 180.0000
State:	 10.324  15.924   3.526   0.509 -0.848 -0.151 112.047    119.48  106.22  138.74    2.40   63.58 -120.59  -14.41  -90.88   33.12   77.04 -156.67  164.20  -33.36   73.98  -68.23  -86.27 -149.58  167.59   35.98  -26.99  172.98   12.43    5.16  180.00

DOCKED: MODEL       37
DOCKED: USER    Run = 37
DOCKED: USER    DPF = D:/Protein_go_brrr/autodock/final/mut_Y35F/IHP/dock.dpf
DOCKED: USER  
DOCKED: USER    Estimated Free Energy of Binding    =   +0.59 kcal/mol  [=(1)+(2)+(3)-(4)]
DOCKED: USER    
DOCKED: USER    (1) Final Intermolecular Energy     =   -6.57 kcal/mol
DOCKED: USER        vdW + Hbond + desolv Energy     =   -6.30 kcal/mol
DOCKED: USER        Electrostatic Energy            =   -0.27 kcal/mol
DOCKED: USER    (2) Final Total Internal Energy     =  -13.38 kcal/mol
DOCKED: USER    (3) Torsional Free Energy           =   +7.16 kcal/mol
DOCKED: USER    (4) Unbound System's Energy  [=(2)] =  -13.38 kcal/mol
DOCKED: USER    
DOCKED: USER    
DOCKED: USER    NEWDPF move IHP_ideal_opt.pdbqt
DOCKED: USER    NEWDPF about 0.035000 0.082000 -0.065000
DOCKED: USER    NEWDPF tran0 10.323976 15.924334 3.526250
DOCKED: USER    NEWDPF quaternion0 0.421787 -0.702858 -0.125576 0.558854
DOCKED: USER    NEWDPF axisangle0 0.508627 -0.847566 -0.151430 112.046891
DOCKED: USER    NEWDPF quat0 0.508627 -0.847566 -0.151430 112.046891
DOCKED: USER    NEWDPF dihe0 119.48 106.22 138.74 2.40 63.58 -120.59 -14.41 -90.88 33.12 77.04 -156.67 164.20 -33.36 73.98 -68.23 -86.27 -149.58 167.59 35.98 -26.99 172.98 12.43 5.16 180.00 
DOCKED: USER  keepresnum = 1 
DOCKED: USER  
DOCKED: REMARK  24 active torsions:
DOCKED: REMARK  status: ('A' for Active; 'I' for Inactive)
DOCKED: REMARK    1  A    between atoms: C_1  and  O_7 
DOCKED: REMARK    2  A    between atoms: C_2  and  O_12 
DOCKED: REMARK    3  A    between atoms: C_3  and  O_17 
DOCKED: REMARK    4  A    between atoms: C_4  and  O_22 
DOCKED: REMARK    5  A    between atoms: C_5  and  O_27 
DOCKED: REMARK    6  A    between atoms: C_6  and  O_32 
DOCKED: REMARK    7  A    between atoms: O_7  and  P_8 
DOCKED: REMARK    8  A    between atoms: P_8  and  O_10 
DOCKED: REMARK    9  A    between atoms: P_8  and  O_11 
DOCKED: REMARK   10  A    between atoms: O_12  and  P_13 
DOCKED: REMARK   11  A    between atoms: P_13  and  O_15 
DOCKED: REMARK   12  A    between atoms: P_13  and  O_16 
DOCKED: REMARK   13  A    between atoms: O_17  and  P_18 
DOCKED: REMARK   14  A    between atoms: P_18  and  O_20 
DOCKED: REMARK   15  A    between atoms: P_18  and  O_21 
DOCKED: REMARK   16  A    between atoms: O_22  and  P_23 
DOCKED: REMARK   17  A    between atoms: P_23  and  O_25 
DOCKED: REMARK   18  A    between atoms: P_23  and  O_26 
DOCKED: REMARK   19  A    between atoms: O_27  and  P_28 
DOCKED: REMARK   20  A    between atoms: P_28  and  O_30 
DOCKED: REMARK   21  A    between atoms: P_28  and  O_31 
DOCKED: REMARK   22  A    between atoms: O_32  and  P_33 
DOCKED: REMARK   23  A    between atoms: P_33  and  O_35 
DOCKED: REMARK   24  A    between atoms: P_33  and  O_36 
DOCKED: USER                              x       y       z     vdW  Elec       q    Type
DOCKED: USER                           _______ _______ _______ _____ _____    ______ ____
DOCKED: ROOT
DOCKED: ATOM      1  C   UNL d   1      11.488  15.326   2.399 -0.16 -0.05    +0.194 C 
DOCKED: ATOM      2  C   UNL d   1      11.851  15.159   3.876 -0.09 -0.03    +0.194 C 
DOCKED: ATOM      3  C   UNL d   1      11.527  16.416   4.685 -0.09 -0.03    +0.194 C 
DOCKED: ATOM      4  C   UNL d   1      10.091  16.900   4.494 -0.20 -0.05    +0.194 C 
DOCKED: ATOM      5  C   UNL d   1       9.648  16.972   3.039 -0.19 -0.05    +0.194 C 
DOCKED: ATOM      6  C   UNL d   1      10.028  15.740   2.214 -0.25 -0.05    +0.194 C 
DOCKED: ENDROOT
DOCKED: BRANCH   1   7
DOCKED: ATOM      7  O   UNL d   1      11.658  14.062   1.752 -0.24 +0.08    -0.278 OA
DOCKED: BRANCH   7   8
DOCKED: ATOM      8  P   UNL d   1      13.105  13.685   1.191 -0.30 -0.13    +0.473 P 
DOCKED: ATOM      9  O   UNL d   1      14.228  14.482   1.756 -0.21 +0.08    -0.228 OA
DOCKED: BRANCH   8  10
DOCKED: ATOM     10  O   UNL d   1      13.237  12.122   1.481 -0.38 +0.05    -0.303 OA
DOCKED: ATOM     11  H   UNL d   1      12.833  11.914   2.344 -0.02 -0.05    +0.222 HD
DOCKED: ENDBRANCH   8  10
DOCKED: BRANCH   8  12
DOCKED: ATOM     12  O   UNL d   1      12.957  13.719  -0.390 -0.73 +0.07    -0.303 OA
DOCKED: ATOM     13  H   UNL d   1      12.698  14.604  -0.734 -0.30 -0.21    +0.222 HD
DOCKED: ENDBRANCH   8  12
DOCKED: ENDBRANCH   7   8
DOCKED: ENDBRANCH   1   7
DOCKED: BRANCH   2  14
DOCKED: ATOM     14  O   UNL d   1      11.106  14.062   4.419 -0.12 +0.03    -0.278 OA
DOCKED: BRANCH  14  15
DOCKED: ATOM     15  P   UNL d   1      11.912  12.700   4.661 -0.04 -0.02    +0.473 P 
DOCKED: ATOM     16  O   UNL d   1      11.781  12.073   6.014 -0.05 -0.01    -0.228 OA
DOCKED: BRANCH  15  17
DOCKED: ATOM     17  O   UNL d   1      11.419  11.743   3.487 -0.15 +0.06    -0.303 OA
DOCKED: ATOM     18  H   UNL d   1      11.373  12.223   2.638 -0.24 -0.09    +0.222 HD
DOCKED: ENDBRANCH  15  17
DOCKED: BRANCH  15  19
DOCKED: ATOM     19  O   UNL d   1      13.399  13.031   4.201 -0.05 +0.01    -0.303 OA
DOCKED: ATOM     20  H   UNL d   1      13.430  13.335   3.275 +0.09 -0.02    +0.222 HD
DOCKED: ENDBRANCH  15  19
DOCKED: ENDBRANCH  14  15
DOCKED: ENDBRANCH   2  14
DOCKED: BRANCH   6  21
DOCKED: ATOM     21  O   UNL d   1       9.864  16.095   0.843 -0.23 +0.09    -0.278 OA
DOCKED: BRANCH  21  22
DOCKED: ATOM     22  P   UNL d   1      10.877  17.123   0.165 -0.12 -0.26    +0.473 P 
DOCKED: ATOM     23  O   UNL d   1      11.358  18.278   0.977 -0.05 +0.10    -0.228 OA
DOCKED: BRANCH  22  24
DOCKED: ATOM     24  O   UNL d   1      12.024  16.151  -0.359 -0.10 +0.34    -0.303 OA
DOCKED: ATOM     25  H   UNL d   1      11.797  15.228  -0.080 -0.41 -0.20    +0.222 HD
DOCKED: ENDBRANCH  22  24
DOCKED: BRANCH  22  26
DOCKED: ATOM     26  O   UNL d   1      10.109  17.490  -1.193 -0.19 +0.14    -0.303 OA
DOCKED: ATOM     27  H   UNL d   1       9.281  17.965  -0.976 +0.09 -0.05    +0.222 HD
DOCKED: ENDBRANCH  22  26
DOCKED: ENDBRANCH  21  22
DOCKED: ENDBRANCH   6  21
DOCKED: BRANCH   3  28
DOCKED: ATOM     28  O   UNL d   1      11.632  16.079   6.062 -0.09 +0.03    -0.278 OA
DOCKED: BRANCH  28  29
DOCKED: ATOM     29  P   UNL d   1      12.620  16.886   7.015 -0.02 -0.03    +0.473 P 
DOCKED: ATOM     30  O   UNL d   1      13.787  16.120   7.524 -0.01 +0.00    -0.228 OA
DOCKED: BRANCH  29  31
DOCKED: ATOM     31  O   UNL d   1      12.931  18.152   6.087 -0.01 +0.03    -0.303 OA
DOCKED: ATOM     32  H   UNL d   1      12.109  18.395   5.601 +0.03 -0.03    +0.222 HD
DOCKED: ENDBRANCH  29  31
DOCKED: BRANCH  29  33
DOCKED: ATOM     33  O   UNL d   1      11.622  17.484   8.102 -0.06 +0.02    -0.303 OA
DOCKED: ATOM     34  H   UNL d   1      10.748  17.659   7.674 -0.00 -0.04    +0.222 HD
DOCKED: ENDBRANCH  29  33
DOCKED: ENDBRANCH  28  29
DOCKED: ENDBRANCH   3  28
DOCKED: BRANCH   5  35
DOCKED: ATOM     35  O   UNL d   1       8.224  17.033   3.070 -0.20 +0.10    -0.278 OA
DOCKED: BRANCH  35  36
DOCKED: ATOM     36  P   UNL d   1       7.442  18.064   2.136 -0.17 -0.10    +0.473 P 
DOCKED: ATOM     37  O   UNL d   1       6.878  19.263   2.830 -0.18 +0.02    -0.228 OA
DOCKED: BRANCH  36  38
DOCKED: ATOM     38  O   UNL d   1       8.540  18.403   1.034 -0.07 +0.05    -0.303 OA
DOCKED: ATOM     39  H   UNL d   1       9.424  18.438   1.461 +0.08 -0.05    +0.222 HD
DOCKED: ENDBRANCH  36  38
DOCKED: BRANCH  36  40
DOCKED: ATOM     40  O   UNL d   1       6.414  17.120   1.375 -0.31 +0.08    -0.303 OA
DOCKED: ATOM     41  H   UNL d   1       6.091  16.393   1.952 -0.44 -0.15    +0.222 HD
DOCKED: ENDBRANCH  36  40
DOCKED: ENDBRANCH  35  36
DOCKED: ENDBRANCH   5  35
DOCKED: BRANCH   4  42
DOCKED: ATOM     42  O   UNL d   1      10.029  18.230   5.019 -0.12 +0.06    -0.278 OA
DOCKED: BRANCH  42  43
DOCKED: ATOM     43  P   UNL d   1      10.798  19.399   4.253 -0.01 -0.08    +0.473 P 
DOCKED: ATOM     44  O   UNL d   1      11.373  20.498   5.078 -0.01 +0.03    -0.228 OA
DOCKED: BRANCH  43  45
DOCKED: ATOM     45  O   UNL d   1      11.872  18.602   3.390 -0.01 +0.07    -0.303 OA
DOCKED: ATOM     46  H   UNL d   1      11.861  18.887   2.454 +0.03 -0.06    +0.222 HD
DOCKED: ENDBRANCH  43  45
DOCKED: BRANCH  43  47
DOCKED: ATOM     47  O   UNL d   1       9.749  19.853   3.130 -0.03 +0.05    -0.303 OA
DOCKED: ATOM     48  H   UNL d   1       9.067  19.157   3.025 +0.06 -0.04    +0.222 HD
DOCKED: ENDBRANCH  43  47
DOCKED: ENDBRANCH  42  43
DOCKED: ENDBRANCH   4  42
DOCKED: TORSDOF 24
DOCKED: TER
DOCKED: ENDMDL
________________________________________________________________________________


	BEGINNING GENETIC ALGORITHM DOCKING 38 of 100
Run: 38 Seed: 2047994464 1719374532 [ Run 38 of 100 GA/GALS ]
Beginning LAMARCKIAN GENETIC ALGORITHM (LGA), with a maximum of 25000000 energy evaluations.

Final-Value: -17.579


	FINAL GENETIC ALGORITHM DOCKED STATE
	_______________________________________________


Detailed state:  trans -11.592 -16.360 9.329 quatxyzw 0.161577 0.944492 -0.176365 0.225219 center 0.035 0.082 -0.065 ntor 24 -176.6905 9.7166 95.9996 -54.6892 147.3090 128.2567 -161.9803 -0.2151 -30.3692 117.0600 -7.6376 -167.5807 46.0222 86.8629 76.1417 8.4173 38.5985 -91.9341 -1.2878 -56.0305 -34.0092 179.4302 -176.1442 29.7235
State:	-11.592 -16.360   9.329   0.166  0.969 -0.181 153.969   -176.69    9.72   96.00  -54.69  147.31  128.26 -161.98   -0.22  -30.37  117.06   -7.64 -167.58   46.02   86.86   76.14    8.42   38.60  -91.93   -1.29  -56.03  -34.01  179.43 -176.14   29.72

DOCKED: MODEL       38
DOCKED: USER    Run = 38
DOCKED: USER    DPF = D:/Protein_go_brrr/autodock/final/mut_Y35F/IHP/dock.dpf
DOCKED: USER  
DOCKED: USER    Estimated Free Energy of Binding    =   +3.59 kcal/mol  [=(1)+(2)+(3)-(4)]
DOCKED: USER    
DOCKED: USER    (1) Final Intermolecular Energy     =   -3.57 kcal/mol
DOCKED: USER        vdW + Hbond + desolv Energy     =   -3.41 kcal/mol
DOCKED: USER        Electrostatic Energy            =   -0.16 kcal/mol
DOCKED: USER    (2) Final Total Internal Energy     =  -14.01 kcal/mol
DOCKED: USER    (3) Torsional Free Energy           =   +7.16 kcal/mol
DOCKED: USER    (4) Unbound System's Energy  [=(2)] =  -14.01 kcal/mol
DOCKED: USER    
DOCKED: USER    
DOCKED: USER    NEWDPF move IHP_ideal_opt.pdbqt
DOCKED: USER    NEWDPF about 0.035000 0.082000 -0.065000
DOCKED: USER    NEWDPF tran0 -11.591829 -16.359782 9.328799
DOCKED: USER    NEWDPF quaternion0 0.161577 0.944492 -0.176365 0.225219
DOCKED: USER    NEWDPF axisangle0 0.165837 0.969397 -0.181016 153.968513
DOCKED: USER    NEWDPF quat0 0.165837 0.969397 -0.181016 153.968513
DOCKED: USER    NEWDPF dihe0 -176.69 9.72 96.00 -54.69 147.31 128.26 -161.98 -0.22 -30.37 117.06 -7.64 -167.58 46.02 86.86 76.14 8.42 38.60 -91.93 -1.29 -56.03 -34.01 179.43 -176.14 29.72 
DOCKED: USER  keepresnum = 1 
DOCKED: USER  
DOCKED: REMARK  24 active torsions:
DOCKED: REMARK  status: ('A' for Active; 'I' for Inactive)
DOCKED: REMARK    1  A    between atoms: C_1  and  O_7 
DOCKED: REMARK    2  A    between atoms: C_2  and  O_12 
DOCKED: REMARK    3  A    between atoms: C_3  and  O_17 
DOCKED: REMARK    4  A    between atoms: C_4  and  O_22 
DOCKED: REMARK    5  A    between atoms: C_5  and  O_27 
DOCKED: REMARK    6  A    between atoms: C_6  and  O_32 
DOCKED: REMARK    7  A    between atoms: O_7  and  P_8 
DOCKED: REMARK    8  A    between atoms: P_8  and  O_10 
DOCKED: REMARK    9  A    between atoms: P_8  and  O_11 
DOCKED: REMARK   10  A    between atoms: O_12  and  P_13 
DOCKED: REMARK   11  A    between atoms: P_13  and  O_15 
DOCKED: REMARK   12  A    between atoms: P_13  and  O_16 
DOCKED: REMARK   13  A    between atoms: O_17  and  P_18 
DOCKED: REMARK   14  A    between atoms: P_18  and  O_20 
DOCKED: REMARK   15  A    between atoms: P_18  and  O_21 
DOCKED: REMARK   16  A    between atoms: O_22  and  P_23 
DOCKED: REMARK   17  A    between atoms: P_23  and  O_25 
DOCKED: REMARK   18  A    between atoms: P_23  and  O_26 
DOCKED: REMARK   19  A    between atoms: O_27  and  P_28 
DOCKED: REMARK   20  A    between atoms: P_28  and  O_30 
DOCKED: REMARK   21  A    between atoms: P_28  and  O_31 
DOCKED: REMARK   22  A    between atoms: O_32  and  P_33 
DOCKED: REMARK   23  A    between atoms: P_33  and  O_35 
DOCKED: REMARK   24  A    between atoms: P_33  and  O_36 
DOCKED: USER                              x       y       z     vdW  Elec       q    Type
DOCKED: USER                           _______ _______ _______ _____ _____    ______ ____
DOCKED: ROOT
DOCKED: ATOM      1  C   UNL d   1     -13.234 -16.870   9.489 -0.07 +0.00    +0.194 C 
DOCKED: ATOM      2  C   UNL d   1     -12.182 -17.966   9.665 -0.04 -0.00    +0.194 C 
DOCKED: ATOM      3  C   UNL d   1     -11.074 -17.860   8.615 -0.09 -0.01    +0.194 C 
DOCKED: ATOM      4  C   UNL d   1     -10.451 -16.469   8.536 -0.17 -0.00    +0.194 C 
DOCKED: ATOM      5  C   UNL d   1     -11.467 -15.336   8.476 -0.22 +0.01    +0.194 C 
DOCKED: ATOM      6  C   UNL d   1     -12.609 -15.475   9.485 -0.15 +0.01    +0.194 C 
DOCKED: ENDROOT
DOCKED: BRANCH   1   7
DOCKED: ATOM      7  O   UNL d   1     -14.131 -16.931  10.601 -0.02 -0.00    -0.278 OA
DOCKED: BRANCH   7   8
DOCKED: ATOM      8  P   UNL d   1     -15.692 -17.109  10.308 -0.02 -0.01    +0.473 P 
DOCKED: ATOM      9  O   UNL d   1     -16.198 -18.504  10.411 -0.01 +0.01    -0.228 OA
DOCKED: BRANCH   8  10
DOCKED: ATOM     10  O   UNL d   1     -16.394 -16.108  11.334 -0.03 +0.00    -0.303 OA
DOCKED: ATOM     11  H   UNL d   1     -15.775 -15.390  11.565 +0.03 +0.01    +0.222 HD
DOCKED: ENDBRANCH   8  10
DOCKED: BRANCH   8  12
DOCKED: ATOM     12  O   UNL d   1     -15.936 -16.383   8.916 -0.11 +0.02    -0.303 OA
DOCKED: ATOM     13  H   UNL d   1     -15.378 -15.581   8.796 +0.07 -0.01    +0.222 HD
DOCKED: ENDBRANCH   8  12
DOCKED: ENDBRANCH   7   8
DOCKED: ENDBRANCH   1   7
DOCKED: BRANCH   2  14
DOCKED: ATOM     14  O   UNL d   1     -11.592 -17.843  10.965 -0.00 -0.00    -0.278 OA
DOCKED: BRANCH  14  15
DOCKED: ATOM     15  P   UNL d   1     -12.475 -18.348  12.202 +0.00 +0.00    +0.473 P 
DOCKED: ATOM     16  O   UNL d   1     -11.745 -19.039  13.311 +0.00 +0.00    -0.228 OA
DOCKED: BRANCH  15  17
DOCKED: ATOM     17  O   UNL d   1     -13.243 -17.040  12.689 -0.00 -0.01    -0.303 OA
DOCKED: ATOM     18  H   UNL d   1     -13.007 -16.268  12.138 +0.02 +0.01    +0.222 HD
DOCKED: ENDBRANCH  15  17
DOCKED: BRANCH  15  19
DOCKED: ATOM     19  O   UNL d   1     -13.654 -19.180  11.534 +0.00 +0.00    -0.303 OA
DOCKED: ATOM     20  H   UNL d   1     -14.520 -18.755  11.675 +0.01 -0.00    +0.222 HD
DOCKED: ENDBRANCH  15  19
DOCKED: ENDBRANCH  14  15
DOCKED: ENDBRANCH   2  14
DOCKED: BRANCH   6  21
DOCKED: ATOM     21  O   UNL d   1     -13.628 -14.561   9.082 -0.22 -0.02    -0.278 OA
DOCKED: BRANCH  21  22
DOCKED: ATOM     22  P   UNL d   1     -14.362 -13.662  10.177 -0.15 +0.09    +0.473 P 
DOCKED: ATOM     23  O   UNL d   1     -14.024 -12.211  10.239 -0.16 -0.11    -0.228 OA
DOCKED: BRANCH  22  24
DOCKED: ATOM     24  O   UNL d   1     -15.894 -13.979   9.882 -0.12 -0.03    -0.303 OA
DOCKED: ATOM     25  H   UNL d   1     -16.122 -14.837  10.321 +0.05 +0.01    +0.222 HD
DOCKED: ENDBRANCH  22  24
DOCKED: BRANCH  22  26
DOCKED: ATOM     26  O   UNL d   1     -14.102 -14.503  11.517 -0.03 -0.04    -0.303 OA
DOCKED: ATOM     27  H   UNL d   1     -14.288 -15.449  11.344 +0.04 +0.01    +0.222 HD
DOCKED: ENDBRANCH  22  26
DOCKED: ENDBRANCH  21  22
DOCKED: ENDBRANCH   6  21
DOCKED: BRANCH   3  28
DOCKED: ATOM     28  O   UNL d   1     -10.018 -18.724   9.017 -0.02 +0.01    -0.278 OA
DOCKED: BRANCH  28  29
DOCKED: ATOM     29  P   UNL d   1      -9.131 -18.370  10.292 +0.01 -0.00    +0.473 P 
DOCKED: ATOM     30  O   UNL d   1      -9.199 -16.958  10.748 -0.02 -0.00    -0.228 OA
DOCKED: BRANCH  29  31
DOCKED: ATOM     31  O   UNL d   1      -9.649 -19.489  11.312 -0.00 +0.00    -0.303 OA
DOCKED: ATOM     32  H   UNL d   1     -10.172 -19.049  12.022 +0.00 -0.00    +0.222 HD
DOCKED: ENDBRANCH  29  31
DOCKED: BRANCH  29  33
DOCKED: ATOM     33  O   UNL d   1      -7.699 -18.920   9.865 -0.01 +0.00    -0.303 OA
DOCKED: ATOM     34  H   UNL d   1      -7.415 -18.465   9.034 +0.04 -0.00    +0.222 HD
DOCKED: ENDBRANCH  29  33
DOCKED: ENDBRANCH  28  29
DOCKED: ENDBRANCH   3  28
DOCKED: BRANCH   5  35
DOCKED: ATOM     35  O   UNL d   1     -10.748 -14.152   8.815 -0.29 -0.03    -0.278 OA
DOCKED: BRANCH  35  36
DOCKED: ATOM     36  P   UNL d   1      -9.751 -14.146  10.060 -0.14 +0.06    +0.473 P 
DOCKED: ATOM     37  O   UNL d   1      -8.381 -14.681   9.791 -0.14 -0.00    -0.228 OA
DOCKED: BRANCH  36  38
DOCKED: ATOM     38  O   UNL d   1      -9.782 -12.614  10.494 -0.11 -0.13    -0.303 OA
DOCKED: ATOM     39  H   UNL d   1      -8.982 -12.165  10.146 +0.06 +0.06    +0.222 HD
DOCKED: ENDBRANCH  36  38
DOCKED: BRANCH  36  40
DOCKED: ATOM     40  O   UNL d   1     -10.605 -14.879  11.183 -0.03 -0.04    -0.303 OA
DOCKED: ATOM     41  H   UNL d   1     -10.646 -15.850  11.034 +0.04 +0.01    +0.222 HD
DOCKED: ENDBRANCH  36  40
DOCKED: ENDBRANCH  35  36
DOCKED: ENDBRANCH   5  35
DOCKED: BRANCH   4  42
DOCKED: ATOM     42  O   UNL d   1      -9.695 -16.421   7.321 -0.22 +0.02    -0.278 OA
DOCKED: BRANCH  42  43
DOCKED: ATOM     43  P   UNL d   1      -8.230 -17.053   7.299 -0.21 -0.02    +0.473 P 
DOCKED: ATOM     44  O   UNL d   1      -7.321 -16.719   8.430 -0.13 -0.00    -0.228 OA
DOCKED: BRANCH  43  45
DOCKED: ATOM     45  O   UNL d   1      -8.523 -18.609   7.137 -0.08 +0.02    -0.303 OA
DOCKED: ATOM     46  H   UNL d   1      -8.758 -19.019   7.993 +0.04 -0.01    +0.222 HD
DOCKED: ENDBRANCH  43  45
DOCKED: BRANCH  43  47
DOCKED: ATOM     47  O   UNL d   1      -7.688 -16.670   5.839 -0.31 +0.04    -0.303 OA
DOCKED: ATOM     48  H   UNL d   1      -8.294 -16.018   5.431 -0.49 -0.09    +0.222 HD
DOCKED: ENDBRANCH  43  47
DOCKED: ENDBRANCH  42  43
DOCKED: ENDBRANCH   4  42
DOCKED: TORSDOF 24
DOCKED: TER
DOCKED: ENDMDL
________________________________________________________________________________


	BEGINNING GENETIC ALGORITHM DOCKING 39 of 100
Run: 39 Seed: 1759474154 1321317609 [ Run 39 of 100 GA/GALS ]
Beginning LAMARCKIAN GENETIC ALGORITHM (LGA), with a maximum of 25000000 energy evaluations.

Final-Value: -16.944


	FINAL GENETIC ALGORITHM DOCKED STATE
	_______________________________________________


Detailed state:  trans 0.230 19.100 1.163 quatxyzw 0.337981 -0.523291 0.736984 -0.262277 center 0.035 0.082 -0.065 ntor 24 -9.2197 -119.0323 -13.1017 173.8653 16.2110 -174.6493 -42.2905 -47.3709 -32.0120 93.6767 93.8238 -73.2467 -155.4501 61.0849 142.1881 80.9158 -38.5139 -91.0109 15.1702 31.8224 -25.0076 18.2289 13.5163 -25.0682
State:	  0.230  19.100   1.163   0.350 -0.542  0.764 -149.590     -9.22 -119.03  -13.10  173.87   16.21 -174.65  -42.29  -47.37  -32.01   93.68   93.82  -73.25 -155.45   61.08  142.19   80.92  -38.51  -91.01   15.17   31.82  -25.01   18.23   13.52  -25.07

DOCKED: MODEL       39
DOCKED: USER    Run = 39
DOCKED: USER    DPF = D:/Protein_go_brrr/autodock/final/mut_Y35F/IHP/dock.dpf
DOCKED: USER  
DOCKED: USER    Estimated Free Energy of Binding    =   -0.60 kcal/mol  [=(1)+(2)+(3)-(4)]
DOCKED: USER    Estimated Inhibition Constant, Ki   =  363.85 mM (millimolar)  [Temperature = 298.15 K]
DOCKED: USER    
DOCKED: USER    (1) Final Intermolecular Energy     =   -7.76 kcal/mol
DOCKED: USER        vdW + Hbond + desolv Energy     =   -7.12 kcal/mol
DOCKED: USER        Electrostatic Energy            =   -0.64 kcal/mol
DOCKED: USER    (2) Final Total Internal Energy     =   -9.19 kcal/mol
DOCKED: USER    (3) Torsional Free Energy           =   +7.16 kcal/mol
DOCKED: USER    (4) Unbound System's Energy  [=(2)] =   -9.19 kcal/mol
DOCKED: USER    
DOCKED: USER    
DOCKED: USER    NEWDPF move IHP_ideal_opt.pdbqt
DOCKED: USER    NEWDPF about 0.035000 0.082000 -0.065000
DOCKED: USER    NEWDPF tran0 0.229581 19.099996 1.163300
DOCKED: USER    NEWDPF quaternion0 0.337981 -0.523291 0.736984 -0.262277
DOCKED: USER    NEWDPF axisangle0 0.350242 -0.542274 0.763720 -149.589563
DOCKED: USER    NEWDPF quat0 0.350242 -0.542274 0.763720 -149.589563
DOCKED: USER    NEWDPF dihe0 -9.22 -119.03 -13.10 173.87 16.21 -174.65 -42.29 -47.37 -32.01 93.68 93.82 -73.25 -155.45 61.08 142.19 80.92 -38.51 -91.01 15.17 31.82 -25.01 18.23 13.52 -25.07 
DOCKED: USER  keepresnum = 1 
DOCKED: USER  
DOCKED: REMARK  24 active torsions:
DOCKED: REMARK  status: ('A' for Active; 'I' for Inactive)
DOCKED: REMARK    1  A    between atoms: C_1  and  O_7 
DOCKED: REMARK    2  A    between atoms: C_2  and  O_12 
DOCKED: REMARK    3  A    between atoms: C_3  and  O_17 
DOCKED: REMARK    4  A    between atoms: C_4  and  O_22 
DOCKED: REMARK    5  A    between atoms: C_5  and  O_27 
DOCKED: REMARK    6  A    between atoms: C_6  and  O_32 
DOCKED: REMARK    7  A    between atoms: O_7  and  P_8 
DOCKED: REMARK    8  A    between atoms: P_8  and  O_10 
DOCKED: REMARK    9  A    between atoms: P_8  and  O_11 
DOCKED: REMARK   10  A    between atoms: O_12  and  P_13 
DOCKED: REMARK   11  A    between atoms: P_13  and  O_15 
DOCKED: REMARK   12  A    between atoms: P_13  and  O_16 
DOCKED: REMARK   13  A    between atoms: O_17  and  P_18 
DOCKED: REMARK   14  A    between atoms: P_18  and  O_20 
DOCKED: REMARK   15  A    between atoms: P_18  and  O_21 
DOCKED: REMARK   16  A    between atoms: O_22  and  P_23 
DOCKED: REMARK   17  A    between atoms: P_23  and  O_25 
DOCKED: REMARK   18  A    between atoms: P_23  and  O_26 
DOCKED: REMARK   19  A    between atoms: O_27  and  P_28 
DOCKED: REMARK   20  A    between atoms: P_28  and  O_30 
DOCKED: REMARK   21  A    between atoms: P_28  and  O_31 
DOCKED: REMARK   22  A    between atoms: O_32  and  P_33 
DOCKED: REMARK   23  A    between atoms: P_33  and  O_35 
DOCKED: REMARK   24  A    between atoms: P_33  and  O_36 
DOCKED: USER                              x       y       z     vdW  Elec       q    Type
DOCKED: USER                           _______ _______ _______ _____ _____    ______ ____
DOCKED: ROOT
DOCKED: ATOM      1  C   UNL d   1       0.270  18.670   2.836 -0.28 -0.04    +0.194 C 
DOCKED: ATOM      2  C   UNL d   1       1.573  19.232   2.267 -0.20 -0.03    +0.194 C 
DOCKED: ATOM      3  C   UNL d   1       1.888  18.648   0.888 -0.14 -0.04    +0.194 C 
DOCKED: ATOM      4  C   UNL d   1       0.728  18.771  -0.097 -0.16 -0.03    +0.194 C 
DOCKED: ATOM      5  C   UNL d   1      -0.616  18.329   0.469 -0.20 -0.05    +0.194 C 
DOCKED: ATOM      6  C   UNL d   1      -0.903  18.864   1.874 -0.16 -0.04    +0.194 C 
DOCKED: ENDROOT
DOCKED: BRANCH   1   7
DOCKED: ATOM      7  O   UNL d   1      -0.040  19.387   4.034 -0.17 +0.05    -0.278 OA
DOCKED: BRANCH   7   8
DOCKED: ATOM      8  P   UNL d   1       0.147  18.642   5.434 -0.28 -0.12    +0.473 P 
DOCKED: ATOM      9  O   UNL d   1      -1.114  18.184   6.079 -0.31 +0.08    -0.228 OA
DOCKED: BRANCH   8  10
DOCKED: ATOM     10  O   UNL d   1       1.154  17.449   5.106 -0.61 +0.06    -0.303 OA
DOCKED: ATOM     11  H   UNL d   1       1.168  16.819   5.850 -0.39 -0.10    +0.222 HD
DOCKED: ENDBRANCH   8  10
DOCKED: BRANCH   8  12
DOCKED: ATOM     12  O   UNL d   1       1.056  19.615   6.301 -0.58 +0.05    -0.303 OA
DOCKED: ATOM     13  H   UNL d   1       1.450  19.175   7.088 -0.18 -0.08    +0.222 HD
DOCKED: ENDBRANCH   8  12
DOCKED: ENDBRANCH   7   8
DOCKED: ENDBRANCH   1   7
DOCKED: BRANCH   2  14
DOCKED: ATOM     14  O   UNL d   1       1.454  20.655   2.143 -0.08 +0.03    -0.278 OA
DOCKED: BRANCH  14  15
DOCKED: ATOM     15  P   UNL d   1       2.818  21.475   1.961 -0.06 -0.04    +0.473 P 
DOCKED: ATOM     16  O   UNL d   1       2.988  22.219   0.674 -0.02 +0.01    -0.228 OA
DOCKED: BRANCH  15  17
DOCKED: ATOM     17  O   UNL d   1       2.870  22.428   3.237 -0.07 +0.04    -0.303 OA
DOCKED: ATOM     18  H   UNL d   1       2.713  23.359   2.987 +0.02 -0.02    +0.222 HD
DOCKED: ENDBRANCH  15  17
DOCKED: BRANCH  15  19
DOCKED: ATOM     19  O   UNL d   1       3.961  20.423   2.302 -0.09 +0.02    -0.303 OA
DOCKED: ATOM     20  H   UNL d   1       4.507  20.218   1.520 +0.06 -0.01    +0.222 HD
DOCKED: ENDBRANCH  15  19
DOCKED: ENDBRANCH  14  15
DOCKED: ENDBRANCH   2  14
DOCKED: BRANCH   6  21
DOCKED: ATOM     21  O   UNL d   1      -1.995  18.105   2.388 -0.18 +0.06    -0.278 OA
DOCKED: BRANCH  21  22
DOCKED: ATOM     22  P   UNL d   1      -3.279  18.857   2.965 -0.09 -0.11    +0.473 P 
DOCKED: ATOM     23  O   UNL d   1      -4.470  18.037   3.333 -0.25 +0.06    -0.228 OA
DOCKED: BRANCH  22  24
DOCKED: ATOM     24  O   UNL d   1      -2.652  19.698   4.162 -0.09 +0.07    -0.303 OA
DOCKED: ATOM     25  H   UNL d   1      -2.102  19.086   4.714 +0.10 -0.05    +0.222 HD
DOCKED: ENDBRANCH  22  24
DOCKED: BRANCH  22  26
DOCKED: ATOM     26  O   UNL d   1      -3.520  19.989   1.855 -0.02 +0.06    -0.303 OA
DOCKED: ATOM     27  H   UNL d   1      -2.959  19.800   1.076 +0.05 -0.05    +0.222 HD
DOCKED: ENDBRANCH  22  26
DOCKED: ENDBRANCH  21  22
DOCKED: ENDBRANCH   6  21
DOCKED: BRANCH   3  28
DOCKED: ATOM     28  O   UNL d   1       2.943  19.419   0.327 -0.12 +0.02    -0.278 OA
DOCKED: BRANCH  28  29
DOCKED: ATOM     29  P   UNL d   1       4.241  18.703  -0.255 -0.14 +0.02    +0.473 P 
DOCKED: ATOM     30  O   UNL d   1       3.991  17.664  -1.288 -0.27 -0.12    -0.228 OA
DOCKED: BRANCH  29  31
DOCKED: ATOM     31  O   UNL d   1       5.089  19.984  -0.704 -0.05 -0.03    -0.303 OA
DOCKED: ATOM     32  H   UNL d   1       4.644  20.792  -0.359 +0.05 +0.01    +0.222 HD
DOCKED: ENDBRANCH  29  31
DOCKED: BRANCH  29  33
DOCKED: ATOM     33  O   UNL d   1       4.987  18.234   1.071 -0.03 +0.06    -0.303 OA
DOCKED: ATOM     34  H   UNL d   1       4.372  18.338   1.839 -0.33 -0.06    +0.222 HD
DOCKED: ENDBRANCH  29  33
DOCKED: ENDBRANCH  28  29
DOCKED: ENDBRANCH   3  28
DOCKED: BRANCH   5  35
DOCKED: ATOM     35  O   UNL d   1      -1.602  18.881  -0.400 -0.07 +0.09    -0.278 OA
DOCKED: BRANCH  35  36
DOCKED: ATOM     36  P   UNL d   1      -2.936  18.067  -0.724 -0.11 -0.25    +0.473 P 
DOCKED: ATOM     37  O   UNL d   1      -3.117  16.795   0.042 -0.20 +0.14    -0.228 OA
DOCKED: BRANCH  36  38
DOCKED: ATOM     38  O   UNL d   1      -4.060  19.162  -0.450 -0.02 +0.09    -0.303 OA
DOCKED: ATOM     39  H   UNL d   1      -4.472  18.988   0.423 +0.05 -0.06    +0.222 HD
DOCKED: ENDBRANCH  36  38
DOCKED: BRANCH  36  40
DOCKED: ATOM     40  O   UNL d   1      -2.889  17.955  -2.310 -0.11 +0.26    -0.303 OA
DOCKED: ATOM     41  H   UNL d   1      -2.030  17.595  -2.624 -0.01 -0.30    +0.222 HD
DOCKED: ENDBRANCH  36  40
DOCKED: ENDBRANCH  35  36
DOCKED: ENDBRANCH   5  35
DOCKED: BRANCH   4  42
DOCKED: ATOM     42  O   UNL d   1       1.026  17.908  -1.199 -0.22 +0.02    -0.278 OA
DOCKED: BRANCH  42  43
DOCKED: ATOM     43  P   UNL d   1       0.779  18.438  -2.683 -0.07 -0.02    +0.473 P 
DOCKED: ATOM     44  O   UNL d   1      -0.505  19.143  -2.955 -0.08 +0.07    -0.228 OA
DOCKED: BRANCH  43  45
DOCKED: ATOM     45  O   UNL d   1       2.075  19.318  -2.959 -0.22 -0.12    -0.303 OA
DOCKED: ATOM     46  H   UNL d   1       2.809  19.072  -2.361 +0.05 +0.11    +0.222 HD
DOCKED: ENDBRANCH  43  45
DOCKED: BRANCH  43  47
DOCKED: ATOM     47  O   UNL d   1       1.064  17.145  -3.586 -0.39 -0.03    -0.303 OA
DOCKED: ATOM     48  H   UNL d   1       0.213  16.787  -3.914 -0.47 -0.33    +0.222 HD
DOCKED: ENDBRANCH  43  47
DOCKED: ENDBRANCH  42  43
DOCKED: ENDBRANCH   4  42
DOCKED: TORSDOF 24
DOCKED: TER
DOCKED: ENDMDL
________________________________________________________________________________


	BEGINNING GENETIC ALGORITHM DOCKING 40 of 100
Run: 40 Seed: 880930866 765399842 [ Run 40 of 100 GA/GALS ]
Beginning LAMARCKIAN GENETIC ALGORITHM (LGA), with a maximum of 25000000 energy evaluations.

Final-Value: -17.233


	FINAL GENETIC ALGORITHM DOCKED STATE
	_______________________________________________


Detailed state:  trans -7.728 -14.788 11.370 quatxyzw 0.269327 -0.399881 0.239160 -0.842829 center 0.035 0.082 -0.065 ntor 24 54.0773 65.0679 66.2856 154.9137 62.6667 -155.0391 -7.4324 166.8720 15.1389 6.4909 123.7091 175.4937 -85.0433 83.6163 67.3734 135.3726 -180.0000 66.6667 -137.5458 -19.1380 29.3406 -35.8378 -176.5290 23.4733
State:	 -7.728 -14.788  11.370   0.500 -0.743  0.444 -65.120     54.08   65.07   66.29  154.91   62.67 -155.04   -7.43  166.87   15.14    6.49  123.71  175.49  -85.04   83.62   67.37  135.37 -180.00   66.67 -137.55  -19.14   29.34  -35.84 -176.53   23.47

DOCKED: MODEL       40
DOCKED: USER    Run = 40
DOCKED: USER    DPF = D:/Protein_go_brrr/autodock/final/mut_Y35F/IHP/dock.dpf
DOCKED: USER  
DOCKED: USER    Estimated Free Energy of Binding    =   +4.89 kcal/mol  [=(1)+(2)+(3)-(4)]
DOCKED: USER    
DOCKED: USER    (1) Final Intermolecular Energy     =   -2.27 kcal/mol
DOCKED: USER        vdW + Hbond + desolv Energy     =   -2.29 kcal/mol
DOCKED: USER        Electrostatic Energy            =   +0.02 kcal/mol
DOCKED: USER    (2) Final Total Internal Energy     =  -14.96 kcal/mol
DOCKED: USER    (3) Torsional Free Energy           =   +7.16 kcal/mol
DOCKED: USER    (4) Unbound System's Energy  [=(2)] =  -14.96 kcal/mol
DOCKED: USER    
DOCKED: USER    
DOCKED: USER    NEWDPF move IHP_ideal_opt.pdbqt
DOCKED: USER    NEWDPF about 0.035000 0.082000 -0.065000
DOCKED: USER    NEWDPF tran0 -7.727972 -14.788437 11.370334
DOCKED: USER    NEWDPF quaternion0 0.269327 -0.399881 0.239160 -0.842829
DOCKED: USER    NEWDPF axisangle0 0.500439 -0.743022 0.444386 -65.119891
DOCKED: USER    NEWDPF quat0 0.500439 -0.743022 0.444386 -65.119891
DOCKED: USER    NEWDPF dihe0 54.08 65.07 66.29 154.91 62.67 -155.04 -7.43 166.87 15.14 6.49 123.71 175.49 -85.04 83.62 67.37 135.37 -180.00 66.67 -137.55 -19.14 29.34 -35.84 -176.53 23.47 
DOCKED: USER  keepresnum = 1 
DOCKED: USER  
DOCKED: REMARK  24 active torsions:
DOCKED: REMARK  status: ('A' for Active; 'I' for Inactive)
DOCKED: REMARK    1  A    between atoms: C_1  and  O_7 
DOCKED: REMARK    2  A    between atoms: C_2  and  O_12 
DOCKED: REMARK    3  A    between atoms: C_3  and  O_17 
DOCKED: REMARK    4  A    between atoms: C_4  and  O_22 
DOCKED: REMARK    5  A    between atoms: C_5  and  O_27 
DOCKED: REMARK    6  A    between atoms: C_6  and  O_32 
DOCKED: REMARK    7  A    between atoms: O_7  and  P_8 
DOCKED: REMARK    8  A    between atoms: P_8  and  O_10 
DOCKED: REMARK    9  A    between atoms: P_8  and  O_11 
DOCKED: REMARK   10  A    between atoms: O_12  and  P_13 
DOCKED: REMARK   11  A    between atoms: P_13  and  O_15 
DOCKED: REMARK   12  A    between atoms: P_13  and  O_16 
DOCKED: REMARK   13  A    between atoms: O_17  and  P_18 
DOCKED: REMARK   14  A    between atoms: P_18  and  O_20 
DOCKED: REMARK   15  A    between atoms: P_18  and  O_21 
DOCKED: REMARK   16  A    between atoms: O_22  and  P_23 
DOCKED: REMARK   17  A    between atoms: P_23  and  O_25 
DOCKED: REMARK   18  A    between atoms: P_23  and  O_26 
DOCKED: REMARK   19  A    between atoms: O_27  and  P_28 
DOCKED: REMARK   20  A    between atoms: P_28  and  O_30 
DOCKED: REMARK   21  A    between atoms: P_28  and  O_31 
DOCKED: REMARK   22  A    between atoms: O_32  and  P_33 
DOCKED: REMARK   23  A    between atoms: P_33  and  O_35 
DOCKED: REMARK   24  A    between atoms: P_33  and  O_36 
DOCKED: USER                              x       y       z     vdW  Elec       q    Type
DOCKED: USER                           _______ _______ _______ _____ _____    ______ ____
DOCKED: ROOT
DOCKED: ATOM      1  C   UNL d   1      -6.901 -15.721  12.566 -0.01 +0.00    +0.194 C 
DOCKED: ATOM      2  C   UNL d   1      -6.909 -16.313  11.156 -0.04 +0.00    +0.194 C 
DOCKED: ATOM      3  C   UNL d   1      -8.284 -16.188  10.496 -0.06 +0.00    +0.194 C 
DOCKED: ATOM      4  C   UNL d   1      -8.839 -14.766  10.529 -0.10 +0.01    +0.194 C 
DOCKED: ATOM      5  C   UNL d   1      -8.746 -14.094  11.893 -0.05 +0.02    +0.194 C 
DOCKED: ATOM      6  C   UNL d   1      -7.390 -14.272  12.580 -0.02 +0.01    +0.194 C 
DOCKED: ENDROOT
DOCKED: BRANCH   1   7
DOCKED: ATOM      7  O   UNL d   1      -5.553 -15.720  13.042 -0.01 +0.00    -0.278 OA
DOCKED: BRANCH   7   8
DOCKED: ATOM      8  P   UNL d   1      -4.724 -14.356  12.972 -0.01 -0.01    +0.473 P 
DOCKED: ATOM      9  O   UNL d   1      -5.048 -13.480  11.813 -0.04 +0.00    -0.228 OA
DOCKED: BRANCH   8  10
DOCKED: ATOM     10  O   UNL d   1      -5.002 -13.662  14.381 -0.00 +0.01    -0.303 OA
DOCKED: ATOM     11  H   UNL d   1      -5.644 -12.936  14.267 +0.02 -0.00    +0.222 HD
DOCKED: ENDBRANCH   8  10
DOCKED: BRANCH   8  12
DOCKED: ATOM     12  O   UNL d   1      -3.202 -14.791  13.110 -0.00 +0.01    -0.303 OA
DOCKED: ATOM     13  H   UNL d   1      -3.051 -15.739  12.896 +0.00 -0.01    +0.222 HD
DOCKED: ENDBRANCH   8  12
DOCKED: ENDBRANCH   7   8
DOCKED: ENDBRANCH   1   7
DOCKED: BRANCH   2  14
DOCKED: ATOM     14  O   UNL d   1      -5.951 -15.614  10.351 -0.05 -0.00    -0.278 OA
DOCKED: BRANCH  14  15
DOCKED: ATOM     15  P   UNL d   1      -4.667 -16.447   9.880 -0.00 -0.00    +0.473 P 
DOCKED: ATOM     16  O   UNL d   1      -4.205 -16.231   8.473 -0.08 +0.00    -0.228 OA
DOCKED: BRANCH  15  17
DOCKED: ATOM     17  O   UNL d   1      -3.553 -16.084  10.959 -0.02 +0.01    -0.303 OA
DOCKED: ATOM     18  H   UNL d   1      -3.691 -15.188  11.320 +0.02 -0.01    +0.222 HD
DOCKED: ENDBRANCH  15  17
DOCKED: BRANCH  15  19
DOCKED: ATOM     19  O   UNL d   1      -5.008 -17.952  10.266 -0.02 +0.00    -0.303 OA
DOCKED: ATOM     20  H   UNL d   1      -5.390 -18.440   9.513 +0.03 -0.00    +0.222 HD
DOCKED: ENDBRANCH  15  19
DOCKED: ENDBRANCH  14  15
DOCKED: ENDBRANCH   2  14
DOCKED: BRANCH   6  21
DOCKED: ATOM     21  O   UNL d   1      -7.568 -13.904  13.945 -0.00 -0.01    -0.278 OA
DOCKED: BRANCH  21  22
DOCKED: ATOM     22  P   UNL d   1      -7.742 -12.366  14.334 +0.00 +0.04    +0.473 P 
DOCKED: ATOM     23  O   UNL d   1      -9.124 -11.842  14.534 -0.02 -0.05    -0.228 OA
DOCKED: BRANCH  22  24
DOCKED: ATOM     24  O   UNL d   1      -6.791 -12.242  15.605 -0.00 -0.00    -0.303 OA
DOCKED: ATOM     25  H   UNL d   1      -6.428 -13.142  15.807 +0.01 -0.00    +0.222 HD
DOCKED: ENDBRANCH  22  24
DOCKED: BRANCH  22  26
DOCKED: ATOM     26  O   UNL d   1      -6.873 -11.643  13.198 -0.04 -0.02    -0.303 OA
DOCKED: ATOM     27  H   UNL d   1      -6.905 -12.178  12.379 +0.05 +0.02    +0.222 HD
DOCKED: ENDBRANCH  22  26
DOCKED: ENDBRANCH  21  22
DOCKED: ENDBRANCH   6  21
DOCKED: BRANCH   3  28
DOCKED: ATOM     28  O   UNL d   1      -8.128 -16.500   9.118 -0.10 -0.00    -0.278 OA
DOCKED: BRANCH  28  29
DOCKED: ATOM     29  P   UNL d   1      -7.929 -18.010   8.653 -0.04 -0.01    +0.473 P 
DOCKED: ATOM     30  O   UNL d   1      -9.078 -18.614   7.929 -0.07 +0.01    -0.228 OA
DOCKED: BRANCH  29  31
DOCKED: ATOM     31  O   UNL d   1      -6.553 -17.876   7.847 -0.09 +0.00    -0.303 OA
DOCKED: ATOM     32  H   UNL d   1      -5.934 -17.319   8.374 +0.05 +0.00    +0.222 HD
DOCKED: ENDBRANCH  29  31
DOCKED: BRANCH  29  33
DOCKED: ATOM     33  O   UNL d   1      -7.478 -18.719  10.005 -0.01 +0.00    -0.303 OA
DOCKED: ATOM     34  H   UNL d   1      -6.700 -19.301   9.818 +0.02 -0.00    +0.222 HD
DOCKED: ENDBRANCH  29  33
DOCKED: ENDBRANCH  28  29
DOCKED: ENDBRANCH   3  28
DOCKED: BRANCH   5  35
DOCKED: ATOM     35  O   UNL d   1      -8.914 -12.699  11.650 -0.09 -0.08    -0.278 OA
DOCKED: BRANCH  35  36
DOCKED: ATOM     36  P   UNL d   1      -8.122 -11.989  10.461 -0.12 +0.07    +0.473 P 
DOCKED: ATOM     37  O   UNL d   1      -7.499 -10.672  10.797 -0.22 -0.03    -0.228 OA
DOCKED: BRANCH  36  38
DOCKED: ATOM     38  O   UNL d   1      -7.080 -13.118  10.042 +0.05 +0.02    -0.303 OA
DOCKED: ATOM     39  H   UNL d   1      -6.567 -13.390  10.833 +0.05 +0.00    +0.222 HD
DOCKED: ENDBRANCH  36  38
DOCKED: BRANCH  36  40
DOCKED: ATOM     40  O   UNL d   1      -9.193 -12.001   9.285 -0.16 -0.05    -0.303 OA
DOCKED: ATOM     41  H   UNL d   1      -9.747 -12.813   9.306 +0.04 +0.04    +0.222 HD
DOCKED: ENDBRANCH  36  40
DOCKED: ENDBRANCH  35  36
DOCKED: ENDBRANCH   5  35
DOCKED: BRANCH   4  42
DOCKED: ATOM     42  O   UNL d   1     -10.229 -14.856  10.198 -0.08 -0.03    -0.278 OA
DOCKED: BRANCH  42  43
DOCKED: ATOM     43  P   UNL d   1     -10.661 -14.809   8.663 -0.22 +0.03    +0.473 P 
DOCKED: ATOM     44  O   UNL d   1     -11.236 -16.050   8.073 -0.20 -0.00    -0.228 OA
DOCKED: BRANCH  43  45
DOCKED: ATOM     45  O   UNL d   1     -11.636 -13.552   8.614 -0.29 -0.06    -0.303 OA
DOCKED: ATOM     46  H   UNL d   1     -11.227 -12.765   9.026 +0.12 +0.09    +0.222 HD
DOCKED: ENDBRANCH  43  45
DOCKED: BRANCH  43  47
DOCKED: ATOM     47  O   UNL d   1      -9.354 -14.237   7.932 -0.21 +0.03    -0.303 OA
DOCKED: ATOM     48  H   UNL d   1      -8.689 -13.989   8.608 -0.27 -0.04    +0.222 HD
DOCKED: ENDBRANCH  43  47
DOCKED: ENDBRANCH  42  43
DOCKED: ENDBRANCH   4  42
DOCKED: TORSDOF 24
DOCKED: TER
DOCKED: ENDMDL
________________________________________________________________________________


	BEGINNING GENETIC ALGORITHM DOCKING 41 of 100
Run: 41 Seed: 1345390830 1170077811 [ Run 41 of 100 GA/GALS ]
Beginning LAMARCKIAN GENETIC ALGORITHM (LGA), with a maximum of 25000000 energy evaluations.

Final-Value: -15.667


	FINAL GENETIC ALGORITHM DOCKED STATE
	_______________________________________________


Detailed state:  trans -9.878 -5.739 17.977 quatxyzw -0.050071 -0.155313 0.431652 0.887157 center 0.035 0.082 -0.065 ntor 24 117.5645 73.0950 41.1858 47.2480 145.5500 -86.9541 -89.5960 54.6697 64.7080 -46.1534 163.1915 179.7070 -63.2862 36.7632 116.7242 124.0724 115.1956 111.8085 64.5689 14.4261 -55.7159 65.9276 160.5942 -32.7595
State:	 -9.878  -5.739  17.977  -0.109 -0.337  0.935 54.964    117.56   73.10   41.19   47.25  145.55  -86.95  -89.60   54.67   64.71  -46.15  163.19  179.71  -63.29   36.76  116.72  124.07  115.20  111.81   64.57   14.43  -55.72   65.93  160.59  -32.76

DOCKED: MODEL       41
DOCKED: USER    Run = 41
DOCKED: USER    DPF = D:/Protein_go_brrr/autodock/final/mut_Y35F/IHP/dock.dpf
DOCKED: USER  
DOCKED: USER    Estimated Free Energy of Binding    =   +3.25 kcal/mol  [=(1)+(2)+(3)-(4)]
DOCKED: USER    
DOCKED: USER    (1) Final Intermolecular Energy     =   -3.91 kcal/mol
DOCKED: USER        vdW + Hbond + desolv Energy     =   -3.49 kcal/mol
DOCKED: USER        Electrostatic Energy            =   -0.42 kcal/mol
DOCKED: USER    (2) Final Total Internal Energy     =  -11.76 kcal/mol
DOCKED: USER    (3) Torsional Free Energy           =   +7.16 kcal/mol
DOCKED: USER    (4) Unbound System's Energy  [=(2)] =  -11.76 kcal/mol
DOCKED: USER    
DOCKED: USER    
DOCKED: USER    NEWDPF move IHP_ideal_opt.pdbqt
DOCKED: USER    NEWDPF about 0.035000 0.082000 -0.065000
DOCKED: USER    NEWDPF tran0 -9.877652 -5.739103 17.976652
DOCKED: USER    NEWDPF quaternion0 -0.050071 -0.155313 0.431652 0.887157
DOCKED: USER    NEWDPF axisangle0 -0.108504 -0.336563 0.935389 54.963750
DOCKED: USER    NEWDPF quat0 -0.108504 -0.336563 0.935389 54.963750
DOCKED: USER    NEWDPF dihe0 117.56 73.10 41.19 47.25 145.55 -86.95 -89.60 54.67 64.71 -46.15 163.19 179.71 -63.29 36.76 116.72 124.07 115.20 111.81 64.57 14.43 -55.72 65.93 160.59 -32.76 
DOCKED: USER  keepresnum = 1 
DOCKED: USER  
DOCKED: REMARK  24 active torsions:
DOCKED: REMARK  status: ('A' for Active; 'I' for Inactive)
DOCKED: REMARK    1  A    between atoms: C_1  and  O_7 
DOCKED: REMARK    2  A    between atoms: C_2  and  O_12 
DOCKED: REMARK    3  A    between atoms: C_3  and  O_17 
DOCKED: REMARK    4  A    between atoms: C_4  and  O_22 
DOCKED: REMARK    5  A    between atoms: C_5  and  O_27 
DOCKED: REMARK    6  A    between atoms: C_6  and  O_32 
DOCKED: REMARK    7  A    between atoms: O_7  and  P_8 
DOCKED: REMARK    8  A    between atoms: P_8  and  O_10 
DOCKED: REMARK    9  A    between atoms: P_8  and  O_11 
DOCKED: REMARK   10  A    between atoms: O_12  and  P_13 
DOCKED: REMARK   11  A    between atoms: P_13  and  O_15 
DOCKED: REMARK   12  A    between atoms: P_13  and  O_16 
DOCKED: REMARK   13  A    between atoms: O_17  and  P_18 
DOCKED: REMARK   14  A    between atoms: P_18  and  O_20 
DOCKED: REMARK   15  A    between atoms: P_18  and  O_21 
DOCKED: REMARK   16  A    between atoms: O_22  and  P_23 
DOCKED: REMARK   17  A    between atoms: P_23  and  O_25 
DOCKED: REMARK   18  A    between atoms: P_23  and  O_26 
DOCKED: REMARK   19  A    between atoms: O_27  and  P_28 
DOCKED: REMARK   20  A    between atoms: P_28  and  O_30 
DOCKED: REMARK   21  A    between atoms: P_28  and  O_31 
DOCKED: REMARK   22  A    between atoms: O_32  and  P_33 
DOCKED: REMARK   23  A    between atoms: P_33  and  O_35 
DOCKED: REMARK   24  A    between atoms: P_33  and  O_36 
DOCKED: USER                              x       y       z     vdW  Elec       q    Type
DOCKED: USER                           _______ _______ _______ _____ _____    ______ ____
DOCKED: ROOT
DOCKED: ATOM      1  C   UNL d   1      -9.662  -7.408  18.366 -0.00 -0.01    +0.194 C 
DOCKED: ATOM      2  C   UNL d   1     -11.099  -6.890  18.451 -0.01 -0.02    +0.194 C 
DOCKED: ATOM      3  C   UNL d   1     -11.167  -5.518  19.125 -0.01 -0.02    +0.194 C 
DOCKED: ATOM      4  C   UNL d   1     -10.220  -4.495  18.503 -0.04 -0.01    +0.194 C 
DOCKED: ATOM      5  C   UNL d   1      -8.802  -5.009  18.293 -0.06 -0.01    +0.194 C 
DOCKED: ATOM      6  C   UNL d   1      -8.735  -6.407  17.676 -0.07 -0.02    +0.194 C 
DOCKED: ENDROOT
DOCKED: BRANCH   1   7
DOCKED: ATOM      7  O   UNL d   1      -9.664  -8.601  17.578 -0.00 +0.01    -0.278 OA
DOCKED: BRANCH   7   8
DOCKED: ATOM      8  P   UNL d   1     -10.579  -9.822  18.051 +0.01 -0.00    +0.473 P 
DOCKED: ATOM      9  O   UNL d   1     -11.139  -9.696  19.424 +0.00 +0.01    -0.228 OA
DOCKED: BRANCH   8  10
DOCKED: ATOM     10  O   UNL d   1     -11.701  -9.925  16.922 +0.00 -0.01    -0.303 OA
DOCKED: ATOM     11  H   UNL d   1     -11.983  -9.030  16.659 +0.02 -0.01    +0.222 HD
DOCKED: ENDBRANCH   8  10
DOCKED: BRANCH   8  12
DOCKED: ATOM     12  O   UNL d   1      -9.708 -11.122  17.774 +0.00 -0.01    -0.303 OA
DOCKED: ATOM     13  H   UNL d   1      -8.739 -10.952  17.813 +0.01 +0.00    +0.222 HD
DOCKED: ENDBRANCH   8  12
DOCKED: ENDBRANCH   7   8
DOCKED: ENDBRANCH   1   7
DOCKED: BRANCH   2  14
DOCKED: ATOM     14  O   UNL d   1     -11.633  -6.775  17.126 -0.05 +0.08    -0.278 OA
DOCKED: BRANCH  14  15
DOCKED: ATOM     15  P   UNL d   1     -13.196  -7.078  16.956 -0.02 -0.16    +0.473 P 
DOCKED: ATOM     16  O   UNL d   1     -14.122  -5.907  17.055 -0.07 +0.08    -0.228 OA
DOCKED: BRANCH  15  17
DOCKED: ATOM     17  O   UNL d   1     -13.295  -7.827  15.553 -0.05 +0.16    -0.303 OA
DOCKED: ATOM     18  H   UNL d   1     -12.883  -7.298  14.843 -0.42 -0.36    +0.222 HD
DOCKED: ENDBRANCH  15  17
DOCKED: BRANCH  15  19
DOCKED: ATOM     19  O   UNL d   1     -13.483  -8.267  17.973 -0.00 +0.03    -0.303 OA
DOCKED: ATOM     20  H   UNL d   1     -12.657  -8.664  18.306 +0.01 -0.02    +0.222 HD
DOCKED: ENDBRANCH  15  19
DOCKED: ENDBRANCH  14  15
DOCKED: ENDBRANCH   2  14
DOCKED: BRANCH   6  21
DOCKED: ATOM     21  O   UNL d   1      -7.401  -6.876  17.862 -0.08 +0.02    -0.278 OA
DOCKED: BRANCH  21  22
DOCKED: ATOM     22  P   UNL d   1      -6.829  -8.029  16.919 -0.09 -0.07    +0.473 P 
DOCKED: ATOM     23  O   UNL d   1      -5.377  -8.004  16.578 -0.21 +0.05    -0.228 OA
DOCKED: BRANCH  22  24
DOCKED: ATOM     24  O   UNL d   1      -7.314  -9.341  17.677 -0.01 +0.02    -0.303 OA
DOCKED: ATOM     25  H   UNL d   1      -8.269  -9.488  17.457 +0.03 -0.01    +0.222 HD
DOCKED: ENDBRANCH  22  24
DOCKED: BRANCH  22  26
DOCKED: ATOM     26  O   UNL d   1      -7.843  -7.969  15.679 -0.10 +0.07    -0.303 OA
DOCKED: ATOM     27  H   UNL d   1      -7.433  -7.456  14.952 -0.47 -0.15    +0.222 HD
DOCKED: ENDBRANCH  22  26
DOCKED: ENDBRANCH  21  22
DOCKED: ENDBRANCH   6  21
DOCKED: BRANCH   3  28
DOCKED: ATOM     28  O   UNL d   1     -12.475  -5.001  18.911 -0.01 +0.03    -0.278 OA
DOCKED: BRANCH  28  29
DOCKED: ATOM     29  P   UNL d   1     -12.905  -3.611  19.559 +0.01 -0.02    +0.473 P 
DOCKED: ATOM     30  O   UNL d   1     -12.822  -2.431  18.660 -0.04 +0.01    -0.228 OA
DOCKED: BRANCH  29  31
DOCKED: ATOM     31  O   UNL d   1     -14.355  -3.999  20.114 -0.00 +0.01    -0.303 OA
DOCKED: ATOM     32  H   UNL d   1     -14.790  -4.599  19.465 +0.01 -0.02    +0.222 HD
DOCKED: ENDBRANCH  29  31
DOCKED: BRANCH  29  33
DOCKED: ATOM     33  O   UNL d   1     -12.021  -3.571  20.883 +0.00 +0.01    -0.303 OA
DOCKED: ATOM     34  H   UNL d   1     -11.366  -2.834  20.809 +0.02 -0.00    +0.222 HD
DOCKED: ENDBRANCH  29  33
DOCKED: ENDBRANCH  28  29
DOCKED: ENDBRANCH   3  28
DOCKED: BRANCH   5  35
DOCKED: ATOM     35  O   UNL d   1      -8.198  -4.111  17.365 -0.15 -0.00    -0.278 OA
DOCKED: BRANCH  35  36
DOCKED: ATOM     36  P   UNL d   1      -8.688  -4.072  15.847 -0.23 +0.02    +0.473 P 
DOCKED: ATOM     37  O   UNL d   1      -8.357  -2.823  15.094 -0.42 -0.05    -0.228 OA
DOCKED: BRANCH  36  38
DOCKED: ATOM     38  O   UNL d   1      -8.018  -5.390  15.255 -0.19 +0.03    -0.303 OA
DOCKED: ATOM     39  H   UNL d   1      -7.442  -5.793  15.940 -0.01 -0.04    +0.222 HD
DOCKED: ENDBRANCH  36  38
DOCKED: BRANCH  36  40
DOCKED: ATOM     40  O   UNL d   1     -10.227  -4.450  15.978 -0.23 +0.05    -0.303 OA
DOCKED: ATOM     41  H   UNL d   1     -10.367  -5.423  15.953 +0.05 -0.08    +0.222 HD
DOCKED: ENDBRANCH  36  40
DOCKED: ENDBRANCH  35  36
DOCKED: ENDBRANCH   5  35
DOCKED: BRANCH   4  42
DOCKED: ATOM     42  O   UNL d   1     -10.139  -3.395  19.417 -0.02 +0.00    -0.278 OA
DOCKED: BRANCH  42  43
DOCKED: ATOM     43  P   UNL d   1     -10.021  -1.915  18.834 -0.06 +0.04    +0.473 P 
DOCKED: ATOM     44  O   UNL d   1     -10.445  -0.794  19.718 -0.08 -0.01    -0.228 OA
DOCKED: BRANCH  43  45
DOCKED: ATOM     45  O   UNL d   1      -8.500  -1.842  18.373 -0.43 -0.07    -0.303 OA
DOCKED: ATOM     46  H   UNL d   1      -8.393  -2.129  17.444 +0.09 +0.05    +0.222 HD
DOCKED: ENDBRANCH  43  45
DOCKED: BRANCH  43  47
DOCKED: ATOM     47  O   UNL d   1     -10.783  -2.013  17.427 -0.17 -0.03    -0.303 OA
DOCKED: ATOM     48  H   UNL d   1     -11.092  -2.933  17.291 +0.07 -0.00    +0.222 HD
DOCKED: ENDBRANCH  43  47
DOCKED: ENDBRANCH  42  43
DOCKED: ENDBRANCH   4  42
DOCKED: TORSDOF 24
DOCKED: TER
DOCKED: ENDMDL
________________________________________________________________________________


	BEGINNING GENETIC ALGORITHM DOCKING 42 of 100
Run: 42 Seed: 817939440 365044655 [ Run 42 of 100 GA/GALS ]
Beginning LAMARCKIAN GENETIC ALGORITHM (LGA), with a maximum of 25000000 energy evaluations.

Final-Value: -17.150


	FINAL GENETIC ALGORITHM DOCKED STATE
	_______________________________________________


Detailed state:  trans -0.390 9.223 20.055 quatxyzw -0.307688 0.181973 0.484802 -0.798236 center 0.035 0.082 -0.065 ntor 24 170.4023 -75.1830 65.8322 139.2098 14.2795 -170.3397 -71.3693 74.0159 98.7817 34.8145 0.2369 171.9038 95.9567 -8.7075 -49.9349 10.9391 161.3521 159.5716 1.6550 -30.3913 154.0260 170.8557 -15.6325 -19.0394
State:	 -0.390   9.223  20.055  -0.511  0.302  0.805 -74.076    170.40  -75.18   65.83  139.21   14.28 -170.34  -71.37   74.02   98.78   34.81    0.24  171.90   95.96   -8.71  -49.93   10.94  161.35  159.57    1.65  -30.39  154.03  170.86  -15.63  -19.04

DOCKED: MODEL       42
DOCKED: USER    Run = 42
DOCKED: USER    DPF = D:/Protein_go_brrr/autodock/final/mut_Y35F/IHP/dock.dpf
DOCKED: USER  
DOCKED: USER    Estimated Free Energy of Binding    =   +3.28 kcal/mol  [=(1)+(2)+(3)-(4)]
DOCKED: USER    
DOCKED: USER    (1) Final Intermolecular Energy     =   -3.88 kcal/mol
DOCKED: USER        vdW + Hbond + desolv Energy     =   -3.26 kcal/mol
DOCKED: USER        Electrostatic Energy            =   -0.61 kcal/mol
DOCKED: USER    (2) Final Total Internal Energy     =  -13.27 kcal/mol
DOCKED: USER    (3) Torsional Free Energy           =   +7.16 kcal/mol
DOCKED: USER    (4) Unbound System's Energy  [=(2)] =  -13.27 kcal/mol
DOCKED: USER    
DOCKED: USER    
DOCKED: USER    NEWDPF move IHP_ideal_opt.pdbqt
DOCKED: USER    NEWDPF about 0.035000 0.082000 -0.065000
DOCKED: USER    NEWDPF tran0 -0.389715 9.222822 20.054534
DOCKED: USER    NEWDPF quaternion0 -0.307688 0.181973 0.484802 -0.798236
DOCKED: USER    NEWDPF axisangle0 -0.510817 0.302108 0.804858 -74.075973
DOCKED: USER    NEWDPF quat0 -0.510817 0.302108 0.804858 -74.075973
DOCKED: USER    NEWDPF dihe0 170.40 -75.18 65.83 139.21 14.28 -170.34 -71.37 74.02 98.78 34.81 0.24 171.90 95.96 -8.71 -49.93 10.94 161.35 159.57 1.65 -30.39 154.03 170.86 -15.63 -19.04 
DOCKED: USER  keepresnum = 1 
DOCKED: USER  
DOCKED: REMARK  24 active torsions:
DOCKED: REMARK  status: ('A' for Active; 'I' for Inactive)
DOCKED: REMARK    1  A    between atoms: C_1  and  O_7 
DOCKED: REMARK    2  A    between atoms: C_2  and  O_12 
DOCKED: REMARK    3  A    between atoms: C_3  and  O_17 
DOCKED: REMARK    4  A    between atoms: C_4  and  O_22 
DOCKED: REMARK    5  A    between atoms: C_5  and  O_27 
DOCKED: REMARK    6  A    between atoms: C_6  and  O_32 
DOCKED: REMARK    7  A    between atoms: O_7  and  P_8 
DOCKED: REMARK    8  A    between atoms: P_8  and  O_10 
DOCKED: REMARK    9  A    between atoms: P_8  and  O_11 
DOCKED: REMARK   10  A    between atoms: O_12  and  P_13 
DOCKED: REMARK   11  A    between atoms: P_13  and  O_15 
DOCKED: REMARK   12  A    between atoms: P_13  and  O_16 
DOCKED: REMARK   13  A    between atoms: O_17  and  P_18 
DOCKED: REMARK   14  A    between atoms: P_18  and  O_20 
DOCKED: REMARK   15  A    between atoms: P_18  and  O_21 
DOCKED: REMARK   16  A    between atoms: O_22  and  P_23 
DOCKED: REMARK   17  A    between atoms: P_23  and  O_25 
DOCKED: REMARK   18  A    between atoms: P_23  and  O_26 
DOCKED: REMARK   19  A    between atoms: O_27  and  P_28 
DOCKED: REMARK   20  A    between atoms: P_28  and  O_30 
DOCKED: REMARK   21  A    between atoms: P_28  and  O_31 
DOCKED: REMARK   22  A    between atoms: O_32  and  P_33 
DOCKED: REMARK   23  A    between atoms: P_33  and  O_35 
DOCKED: REMARK   24  A    between atoms: P_33  and  O_36 
DOCKED: USER                              x       y       z     vdW  Elec       q    Type
DOCKED: USER                           _______ _______ _______ _____ _____    ______ ____
DOCKED: ROOT
DOCKED: ATOM      1  C   UNL d   1       0.972  10.278  20.185 -0.07 -0.09    +0.194 C 
DOCKED: ATOM      2  C   UNL d   1       1.108   8.932  20.898 -0.03 -0.05    +0.194 C 
DOCKED: ATOM      3  C   UNL d   1      -0.172   8.555  21.647 -0.01 -0.03    +0.194 C 
DOCKED: ATOM      4  C   UNL d   1      -1.422   8.621  20.773 -0.02 -0.03    +0.194 C 
DOCKED: ATOM      5  C   UNL d   1      -1.540   9.900  19.955 -0.07 -0.07    +0.194 C 
DOCKED: ATOM      6  C   UNL d   1      -0.242  10.310  19.255 -0.12 -0.15    +0.194 C 
DOCKED: ENDROOT
DOCKED: BRANCH   1   7
DOCKED: ATOM      7  O   UNL d   1       2.134  10.474  19.376 -0.09 +0.16    -0.278 OA
DOCKED: BRANCH   7   8
DOCKED: ATOM      8  P   UNL d   1       3.042  11.759  19.650 -0.02 -0.19    +0.473 P 
DOCKED: ATOM      9  O   UNL d   1       4.496  11.570  19.393 -0.02 +0.04    -0.228 OA
DOCKED: BRANCH   8  10
DOCKED: ATOM     10  O   UNL d   1       2.387  12.896  18.743 -0.07 +0.25    -0.303 OA
DOCKED: ATOM     11  H   UNL d   1       1.515  12.597  18.422 -0.41 -0.38    +0.222 HD
DOCKED: ENDBRANCH   8  10
DOCKED: BRANCH   8  12
DOCKED: ATOM     12  O   UNL d   1       2.652  12.236  21.114 -0.00 +0.07    -0.303 OA
DOCKED: ATOM     13  H   UNL d   1       2.299  13.153  21.140 +0.01 -0.05    +0.222 HD
DOCKED: ENDBRANCH   8  12
DOCKED: ENDBRANCH   7   8
DOCKED: ENDBRANCH   1   7
DOCKED: BRANCH   2  14
DOCKED: ATOM     14  O   UNL d   1       1.385   7.915  19.927 -0.08 +0.08    -0.278 OA
DOCKED: BRANCH  14  15
DOCKED: ATOM     15  P   UNL d   1       2.909   7.440  19.803 -0.05 -0.11    +0.473 P 
DOCKED: ATOM     16  O   UNL d   1       3.628   7.145  21.082 -0.02 +0.02    -0.228 OA
DOCKED: BRANCH  15  17
DOCKED: ATOM     17  O   UNL d   1       2.845   6.182  18.827 +0.02 +0.11    -0.303 OA
DOCKED: ATOM     18  H   UNL d   1       1.992   5.715  18.911 -0.33 -0.08    +0.222 HD
DOCKED: ENDBRANCH  15  17
DOCKED: BRANCH  15  19
DOCKED: ATOM     19  O   UNL d   1       3.591   8.534  18.870 -0.08 +0.08    -0.303 OA
DOCKED: ATOM     20  H   UNL d   1       3.810   9.344  19.366 +0.03 -0.05    +0.222 HD
DOCKED: ENDBRANCH  15  19
DOCKED: ENDBRANCH  14  15
DOCKED: ENDBRANCH   2  14
DOCKED: BRANCH   6  21
DOCKED: ATOM     21  O   UNL d   1      -0.410  11.662  18.834 +0.08 +0.44    -0.278 OA
DOCKED: BRANCH  21  22
DOCKED: ATOM     22  P   UNL d   1      -0.893  12.764  19.882 -0.03 -0.30    +0.473 P 
DOCKED: ATOM     23  O   UNL d   1      -1.576  12.303  21.125 -0.02 +0.06    -0.228 OA
DOCKED: BRANCH  22  24
DOCKED: ATOM     24  O   UNL d   1       0.444  13.592  20.123 -0.05 +0.15    -0.303 OA
DOCKED: ATOM     25  H   UNL d   1       1.165  12.953  20.356 +0.02 -0.10    +0.222 HD
DOCKED: ENDBRANCH  22  24
DOCKED: BRANCH  22  26
DOCKED: ATOM     26  O   UNL d   1      -1.734  13.757  18.945 -0.07 +0.19    -0.303 OA
DOCKED: ATOM     27  H   UNL d   1      -1.929  13.311  18.096 -0.37 -0.36    +0.222 HD
DOCKED: ENDBRANCH  22  26
DOCKED: ENDBRANCH  21  22
DOCKED: ENDBRANCH   6  21
DOCKED: BRANCH   3  28
DOCKED: ATOM     28  O   UNL d   1      -0.055   7.192  22.036 -0.00 +0.03    -0.278 OA
DOCKED: BRANCH  28  29
DOCKED: ATOM     29  P   UNL d   1      -0.309   6.029  20.979 -0.00 -0.05    +0.473 P 
DOCKED: ATOM     30  O   UNL d   1      -0.992   6.441  19.725 -0.07 +0.03    -0.228 OA
DOCKED: BRANCH  29  31
DOCKED: ATOM     31  O   UNL d   1       1.176   5.449  20.840 -0.02 +0.03    -0.303 OA
DOCKED: ATOM     32  H   UNL d   1       1.811   6.132  21.156 +0.02 -0.03    +0.222 HD
DOCKED: ENDBRANCH  29  31
DOCKED: BRANCH  29  33
DOCKED: ATOM     33  O   UNL d   1      -1.037   4.925  21.865 -0.00 +0.02    -0.303 OA
DOCKED: ATOM     34  H   UNL d   1      -1.831   4.593  21.378 +0.02 -0.01    +0.222 HD
DOCKED: ENDBRANCH  29  33
DOCKED: ENDBRANCH  28  29
DOCKED: ENDBRANCH   3  28
DOCKED: BRANCH   5  35
DOCKED: ATOM     35  O   UNL d   1      -2.496   9.620  18.934 -0.10 +0.09    -0.278 OA
DOCKED: BRANCH  35  36
DOCKED: ATOM     36  P   UNL d   1      -3.889  10.397  18.902 -0.06 -0.03    +0.473 P 
DOCKED: ATOM     37  O   UNL d   1      -5.015   9.674  18.234 -0.08 -0.02    -0.228 OA
DOCKED: BRANCH  36  38
DOCKED: ATOM     38  O   UNL d   1      -4.130  10.699  20.447 -0.01 +0.01    -0.303 OA
DOCKED: ATOM     39  H   UNL d   1      -3.262  10.774  20.899 +0.02 -0.02    +0.222 HD
DOCKED: ENDBRANCH  36  38
DOCKED: BRANCH  36  40
DOCKED: ATOM     40  O   UNL d   1      -3.477  11.809  18.296 -0.64 -0.02    -0.303 OA
DOCKED: ATOM     41  H   UNL d   1      -2.502  11.894  18.201 -0.52 -0.26    +0.222 HD
DOCKED: ENDBRANCH  36  40
DOCKED: ENDBRANCH  35  36
DOCKED: ENDBRANCH   5  35
DOCKED: BRANCH   4  42
DOCKED: ATOM     42  O   UNL d   1      -2.548   8.580  21.656 +0.00 +0.03    -0.278 OA
DOCKED: BRANCH  42  43
DOCKED: ATOM     43  P   UNL d   1      -3.722   7.541  21.361 +0.01 -0.02    +0.473 P 
DOCKED: ATOM     44  O   UNL d   1      -5.078   7.872  21.881 -0.00 +0.00    -0.228 OA
DOCKED: BRANCH  43  45
DOCKED: ATOM     45  O   UNL d   1      -3.653   7.377  19.780 -0.03 +0.01    -0.303 OA
DOCKED: ATOM     46  H   UNL d   1      -3.992   8.172  19.322 +0.05 -0.01    +0.222 HD
DOCKED: ENDBRANCH  43  45
DOCKED: BRANCH  43  47
DOCKED: ATOM     47  O   UNL d   1      -3.111   6.146  21.861 -0.00 +0.01    -0.303 OA
DOCKED: ATOM     48  H   UNL d   1      -2.161   6.266  22.068 +0.01 -0.01    +0.222 HD
DOCKED: ENDBRANCH  43  47
DOCKED: ENDBRANCH  42  43
DOCKED: ENDBRANCH   4  42
DOCKED: TORSDOF 24
DOCKED: TER
DOCKED: ENDMDL
________________________________________________________________________________


	BEGINNING GENETIC ALGORITHM DOCKING 43 of 100
Run: 43 Seed: 917075245 1552225447 [ Run 43 of 100 GA/GALS ]
Beginning LAMARCKIAN GENETIC ALGORITHM (LGA), with a maximum of 25000000 energy evaluations.

Final-Value: -17.333


	FINAL GENETIC ALGORITHM DOCKED STATE
	_______________________________________________


Detailed state:  trans -15.133 6.126 8.479 quatxyzw -0.447149 0.773302 0.427236 0.139754 center 0.035 0.082 -0.065 ntor 24 138.9775 -10.2577 -87.7366 105.1433 27.3110 172.3393 -31.0002 -7.1408 151.8527 126.8276 -97.2843 -146.5529 -96.1191 -39.5803 161.0882 131.1035 -54.5053 -41.5046 48.4166 1.1266 -26.3479 20.2698 -179.8506 164.4970
State:	-15.133   6.126   8.479  -0.452  0.781  0.431 163.933    138.98  -10.26  -87.74  105.14   27.31  172.34  -31.00   -7.14  151.85  126.83  -97.28 -146.55  -96.12  -39.58  161.09  131.10  -54.51  -41.50   48.42    1.13  -26.35   20.27 -179.85  164.50

DOCKED: MODEL       43
DOCKED: USER    Run = 43
DOCKED: USER    DPF = D:/Protein_go_brrr/autodock/final/mut_Y35F/IHP/dock.dpf
DOCKED: USER  
DOCKED: USER    Estimated Free Energy of Binding    =   +0.14 kcal/mol  [=(1)+(2)+(3)-(4)]
DOCKED: USER    
DOCKED: USER    (1) Final Intermolecular Energy     =   -7.02 kcal/mol
DOCKED: USER        vdW + Hbond + desolv Energy     =   -6.40 kcal/mol
DOCKED: USER        Electrostatic Energy            =   -0.62 kcal/mol
DOCKED: USER    (2) Final Total Internal Energy     =  -10.31 kcal/mol
DOCKED: USER    (3) Torsional Free Energy           =   +7.16 kcal/mol
DOCKED: USER    (4) Unbound System's Energy  [=(2)] =  -10.31 kcal/mol
DOCKED: USER    
DOCKED: USER    
DOCKED: USER    NEWDPF move IHP_ideal_opt.pdbqt
DOCKED: USER    NEWDPF about 0.035000 0.082000 -0.065000
DOCKED: USER    NEWDPF tran0 -15.132836 6.126265 8.479131
DOCKED: USER    NEWDPF quaternion0 -0.447149 0.773302 0.427236 0.139754
DOCKED: USER    NEWDPF axisangle0 -0.451580 0.780967 0.431470 163.932770
DOCKED: USER    NEWDPF quat0 -0.451580 0.780967 0.431470 163.932770
DOCKED: USER    NEWDPF dihe0 138.98 -10.26 -87.74 105.14 27.31 172.34 -31.00 -7.14 151.85 126.83 -97.28 -146.55 -96.12 -39.58 161.09 131.10 -54.51 -41.50 48.42 1.13 -26.35 20.27 -179.85 164.50 
DOCKED: USER  keepresnum = 1 
DOCKED: USER  
DOCKED: REMARK  24 active torsions:
DOCKED: REMARK  status: ('A' for Active; 'I' for Inactive)
DOCKED: REMARK    1  A    between atoms: C_1  and  O_7 
DOCKED: REMARK    2  A    between atoms: C_2  and  O_12 
DOCKED: REMARK    3  A    between atoms: C_3  and  O_17 
DOCKED: REMARK    4  A    between atoms: C_4  and  O_22 
DOCKED: REMARK    5  A    between atoms: C_5  and  O_27 
DOCKED: REMARK    6  A    between atoms: C_6  and  O_32 
DOCKED: REMARK    7  A    between atoms: O_7  and  P_8 
DOCKED: REMARK    8  A    between atoms: P_8  and  O_10 
DOCKED: REMARK    9  A    between atoms: P_8  and  O_11 
DOCKED: REMARK   10  A    between atoms: O_12  and  P_13 
DOCKED: REMARK   11  A    between atoms: P_13  and  O_15 
DOCKED: REMARK   12  A    between atoms: P_13  and  O_16 
DOCKED: REMARK   13  A    between atoms: O_17  and  P_18 
DOCKED: REMARK   14  A    between atoms: P_18  and  O_20 
DOCKED: REMARK   15  A    between atoms: P_18  and  O_21 
DOCKED: REMARK   16  A    between atoms: O_22  and  P_23 
DOCKED: REMARK   17  A    between atoms: P_23  and  O_25 
DOCKED: REMARK   18  A    between atoms: P_23  and  O_26 
DOCKED: REMARK   19  A    between atoms: O_27  and  P_28 
DOCKED: REMARK   20  A    between atoms: P_28  and  O_30 
DOCKED: REMARK   21  A    between atoms: P_28  and  O_31 
DOCKED: REMARK   22  A    between atoms: O_32  and  P_33 
DOCKED: REMARK   23  A    between atoms: P_33  and  O_35 
DOCKED: REMARK   24  A    between atoms: P_33  and  O_36 
DOCKED: USER                              x       y       z     vdW  Elec       q    Type
DOCKED: USER                           _______ _______ _______ _____ _____    ______ ____
DOCKED: ROOT
DOCKED: ATOM      1  C   UNL d   1     -15.801   5.325   7.102 -0.09 +0.15    +0.194 C 
DOCKED: ATOM      2  C   UNL d   1     -14.420   5.951   6.897 -0.10 +0.19    +0.194 C 
DOCKED: ATOM      3  C   UNL d   1     -14.329   7.342   7.527 -0.07 +0.18    +0.194 C 
DOCKED: ATOM      4  C   UNL d   1     -14.764   7.370   8.990 -0.06 +0.25    +0.194 C 
DOCKED: ATOM      5  C   UNL d   1     -16.083   6.656   9.259 -0.06 +0.16    +0.194 C 
DOCKED: ATOM      6  C   UNL d   1     -16.198   5.290   8.579 -0.11 +0.18    +0.194 C 
DOCKED: ENDROOT
DOCKED: BRANCH   1   7
DOCKED: ATOM      7  O   UNL d   1     -15.751   3.972   6.642 -0.36 -0.22    -0.278 OA
DOCKED: BRANCH   7   8
DOCKED: ATOM      8  P   UNL d   1     -15.721   3.707   5.068 -0.06 +0.18    +0.473 P 
DOCKED: ATOM      9  O   UNL d   1     -16.683   4.518   4.273 -0.02 -0.06    -0.228 OA
DOCKED: BRANCH   8  10
DOCKED: ATOM     10  O   UNL d   1     -14.200   3.959   4.661 -0.14 -0.15    -0.303 OA
DOCKED: ATOM     11  H   UNL d   1     -13.758   4.481   5.356 +0.08 +0.16    +0.222 HD
DOCKED: ENDBRANCH   8  10
DOCKED: BRANCH   8  12
DOCKED: ATOM     12  O   UNL d   1     -15.850   2.130   4.912 -0.16 -0.07    -0.303 OA
DOCKED: ATOM     13  H   UNL d   1     -15.159   1.637   5.410 -0.48 -0.00    +0.222 HD
DOCKED: ENDBRANCH   8  12
DOCKED: ENDBRANCH   7   8
DOCKED: ENDBRANCH   1   7
DOCKED: BRANCH   2  14
DOCKED: ATOM     14  O   UNL d   1     -13.432   5.109   7.505 -0.20 -0.55    -0.278 OA
DOCKED: BRANCH  14  15
DOCKED: ATOM     15  P   UNL d   1     -12.136   4.777   6.625 -0.17 +0.64    +0.473 P 
DOCKED: ATOM     16  O   UNL d   1     -11.895   5.644   5.429 -0.26 -0.20    -0.228 OA
DOCKED: BRANCH  15  17
DOCKED: ATOM     17  O   UNL d   1     -10.935   4.821   7.671 -0.50 -0.41    -0.303 OA
DOCKED: ATOM     18  H   UNL d   1     -10.090   4.575   7.247 +0.05 +0.18    +0.222 HD
DOCKED: ENDBRANCH  15  17
DOCKED: BRANCH  15  19
DOCKED: ATOM     19  O   UNL d   1     -12.246   3.218   6.330 -0.50 -0.44    -0.303 OA
DOCKED: ATOM     20  H   UNL d   1     -13.147   2.965   6.056 -0.12 +0.24    +0.222 HD
DOCKED: ENDBRANCH  15  19
DOCKED: ENDBRANCH  14  15
DOCKED: ENDBRANCH   2  14
DOCKED: BRANCH   6  21
DOCKED: ATOM     21  O   UNL d   1     -17.573   4.917   8.633 -0.06 -0.14    -0.278 OA
DOCKED: BRANCH  21  22
DOCKED: ATOM     22  P   UNL d   1     -17.982   3.483   9.200 -0.10 +0.25    +0.473 P 
DOCKED: ATOM     23  O   UNL d   1     -19.389   3.025   9.010 -0.61 -0.09    -0.228 OA
DOCKED: BRANCH  22  24
DOCKED: ATOM     24  O   UNL d   1     -16.879   2.545   8.540 -0.21 -0.25    -0.303 OA
DOCKED: ATOM     25  H   UNL d   1     -16.718   2.863   7.615 -0.04 +0.15    +0.222 HD
DOCKED: ENDBRANCH  22  24
DOCKED: BRANCH  22  26
DOCKED: ATOM     26  O   UNL d   1     -17.473   3.576  10.718 -0.16 -0.16    -0.303 OA
DOCKED: ATOM     27  H   UNL d   1     -17.042   4.443  10.860 +0.05 +0.13    +0.222 HD
DOCKED: ENDBRANCH  22  26
DOCKED: ENDBRANCH  21  22
DOCKED: ENDBRANCH   6  21
DOCKED: BRANCH   3  28
DOCKED: ATOM     28  O   UNL d   1     -12.959   7.721   7.534 -0.15 -0.31    -0.278 OA
DOCKED: BRANCH  28  29
DOCKED: ATOM     29  P   UNL d   1     -12.516   9.150   6.987 -0.07 +0.35    +0.473 P 
DOCKED: ATOM     30  O   UNL d   1     -12.147  10.147   8.024 -0.30 -0.23    -0.228 OA
DOCKED: BRANCH  29  31
DOCKED: ATOM     31  O   UNL d   1     -11.369   8.712   5.959 -0.18 -0.14    -0.303 OA
DOCKED: ATOM     32  H   UNL d   1     -11.504   7.765   5.723 +0.09 +0.13    +0.222 HD
DOCKED: ENDBRANCH  29  31
DOCKED: BRANCH  29  33
DOCKED: ATOM     33  O   UNL d   1     -13.726   9.528   6.023 -0.02 -0.12    -0.303 OA
DOCKED: ATOM     34  H   UNL d   1     -14.575   9.428   6.519 +0.03 +0.10    +0.222 HD
DOCKED: ENDBRANCH  29  33
DOCKED: ENDBRANCH  28  29
DOCKED: ENDBRANCH   3  28
DOCKED: BRANCH   5  35
DOCKED: ATOM     35  O   UNL d   1     -16.119   6.428  10.667 -0.04 -0.23    -0.278 OA
DOCKED: BRANCH  35  36
DOCKED: ATOM     36  P   UNL d   1     -14.867   5.775  11.409 -0.11 +0.57    +0.473 P 
DOCKED: ATOM     37  O   UNL d   1     -13.803   5.223  10.514 -0.43 -0.48    -0.228 OA
DOCKED: BRANCH  36  38
DOCKED: ATOM     38  O   UNL d   1     -14.382   6.970  12.343 -0.45 -0.46    -0.303 OA
DOCKED: ATOM     39  H   UNL d   1     -14.935   6.988  13.154 +0.03 +0.20    +0.222 HD
DOCKED: ENDBRANCH  36  38
DOCKED: BRANCH  36  40
DOCKED: ATOM     40  O   UNL d   1     -15.561   4.759  12.416 -0.09 -0.22    -0.303 OA
DOCKED: ATOM     41  H   UNL d   1     -15.754   3.895  11.988 +0.05 +0.18    +0.222 HD
DOCKED: ENDBRANCH  36  40
DOCKED: ENDBRANCH  35  36
DOCKED: ENDBRANCH   5  35
DOCKED: BRANCH   4  42
DOCKED: ATOM     42  O   UNL d   1     -14.951   8.745   9.342 -0.31 -0.40    -0.278 OA
DOCKED: BRANCH  42  43
DOCKED: ATOM     43  P   UNL d   1     -15.909   9.648   8.441 -0.01 +0.27    +0.473 P 
DOCKED: ATOM     44  O   UNL d   1     -16.639   8.978   7.329 +0.00 -0.08    -0.228 OA
DOCKED: BRANCH  43  45
DOCKED: ATOM     45  O   UNL d   1     -16.856  10.335   9.520 +0.00 -0.12    -0.303 OA
DOCKED: ATOM     46  H   UNL d   1     -17.599  10.807   9.095 +0.00 +0.05    +0.222 HD
DOCKED: ENDBRANCH  43  45
DOCKED: BRANCH  43  47
DOCKED: ATOM     47  O   UNL d   1     -14.964  10.869   8.012 -0.02 -0.15    -0.303 OA
DOCKED: ATOM     48  H   UNL d   1     -14.042  10.549   7.926 +0.04 +0.16    +0.222 HD
DOCKED: ENDBRANCH  43  47
DOCKED: ENDBRANCH  42  43
DOCKED: ENDBRANCH   4  42
DOCKED: TORSDOF 24
DOCKED: TER
DOCKED: ENDMDL
________________________________________________________________________________


	BEGINNING GENETIC ALGORITHM DOCKING 44 of 100
Run: 44 Seed: 1166008594 603629777 [ Run 44 of 100 GA/GALS ]
Beginning LAMARCKIAN GENETIC ALGORITHM (LGA), with a maximum of 25000000 energy evaluations.

Final-Value: -16.704


	FINAL GENETIC ALGORITHM DOCKED STATE
	_______________________________________________


Detailed state:  trans -11.433 5.436 -4.758 quatxyzw -0.222873 0.589281 -0.434315 -0.643775 center 0.035 0.082 -0.065 ntor 24 126.5260 38.3899 15.4785 -104.0803 7.4279 -164.5761 -52.1689 -114.4230 -94.4410 34.7572 135.4571 125.8671 160.9531 -85.9764 -44.5786 87.5853 7.6750 -175.5127 32.1220 1.8554 180.0000 -15.4604 -12.3597 9.9184
State:	-11.433   5.436  -4.758  -0.291  0.770 -0.568 -99.852    126.53   38.39   15.48 -104.08    7.43 -164.58  -52.17 -114.42  -94.44   34.76  135.46  125.87  160.95  -85.98  -44.58   87.59    7.68 -175.51   32.12    1.86  180.00  -15.46  -12.36    9.92

DOCKED: MODEL       44
DOCKED: USER    Run = 44
DOCKED: USER    DPF = D:/Protein_go_brrr/autodock/final/mut_Y35F/IHP/dock.dpf
DOCKED: USER  
DOCKED: USER    Estimated Free Energy of Binding    =   +3.15 kcal/mol  [=(1)+(2)+(3)-(4)]
DOCKED: USER    
DOCKED: USER    (1) Final Intermolecular Energy     =   -4.01 kcal/mol
DOCKED: USER        vdW + Hbond + desolv Energy     =   -4.01 kcal/mol
DOCKED: USER        Electrostatic Energy            =   +0.00 kcal/mol
DOCKED: USER    (2) Final Total Internal Energy     =  -12.70 kcal/mol
DOCKED: USER    (3) Torsional Free Energy           =   +7.16 kcal/mol
DOCKED: USER    (4) Unbound System's Energy  [=(2)] =  -12.70 kcal/mol
DOCKED: USER    
DOCKED: USER    
DOCKED: USER    NEWDPF move IHP_ideal_opt.pdbqt
DOCKED: USER    NEWDPF about 0.035000 0.082000 -0.065000
DOCKED: USER    NEWDPF tran0 -11.432894 5.435862 -4.758320
DOCKED: USER    NEWDPF quaternion0 -0.222873 0.589281 -0.434315 -0.643775
DOCKED: USER    NEWDPF axisangle0 -0.291256 0.770085 -0.567573 -99.852217
DOCKED: USER    NEWDPF quat0 -0.291256 0.770085 -0.567573 -99.852217
DOCKED: USER    NEWDPF dihe0 126.53 38.39 15.48 -104.08 7.43 -164.58 -52.17 -114.42 -94.44 34.76 135.46 125.87 160.95 -85.98 -44.58 87.59 7.68 -175.51 32.12 1.86 180.00 -15.46 -12.36 9.92 
DOCKED: USER  keepresnum = 1 
DOCKED: USER  
DOCKED: REMARK  24 active torsions:
DOCKED: REMARK  status: ('A' for Active; 'I' for Inactive)
DOCKED: REMARK    1  A    between atoms: C_1  and  O_7 
DOCKED: REMARK    2  A    between atoms: C_2  and  O_12 
DOCKED: REMARK    3  A    between atoms: C_3  and  O_17 
DOCKED: REMARK    4  A    between atoms: C_4  and  O_22 
DOCKED: REMARK    5  A    between atoms: C_5  and  O_27 
DOCKED: REMARK    6  A    between atoms: C_6  and  O_32 
DOCKED: REMARK    7  A    between atoms: O_7  and  P_8 
DOCKED: REMARK    8  A    between atoms: P_8  and  O_10 
DOCKED: REMARK    9  A    between atoms: P_8  and  O_11 
DOCKED: REMARK   10  A    between atoms: O_12  and  P_13 
DOCKED: REMARK   11  A    between atoms: P_13  and  O_15 
DOCKED: REMARK   12  A    between atoms: P_13  and  O_16 
DOCKED: REMARK   13  A    between atoms: O_17  and  P_18 
DOCKED: REMARK   14  A    between atoms: P_18  and  O_20 
DOCKED: REMARK   15  A    between atoms: P_18  and  O_21 
DOCKED: REMARK   16  A    between atoms: O_22  and  P_23 
DOCKED: REMARK   17  A    between atoms: P_23  and  O_25 
DOCKED: REMARK   18  A    between atoms: P_23  and  O_26 
DOCKED: REMARK   19  A    between atoms: O_27  and  P_28 
DOCKED: REMARK   20  A    between atoms: P_28  and  O_30 
DOCKED: REMARK   21  A    between atoms: P_28  and  O_31 
DOCKED: REMARK   22  A    between atoms: O_32  and  P_33 
DOCKED: REMARK   23  A    between atoms: P_33  and  O_35 
DOCKED: REMARK   24  A    between atoms: P_33  and  O_36 
DOCKED: USER                              x       y       z     vdW  Elec       q    Type
DOCKED: USER                           _______ _______ _______ _____ _____    ______ ____
DOCKED: ROOT
DOCKED: ATOM      1  C   UNL d   1     -11.033   3.763  -4.594 -0.09 +0.02    +0.194 C 
DOCKED: ATOM      2  C   UNL d   1     -11.533   4.451  -3.323 -0.08 +0.02    +0.194 C 
DOCKED: ATOM      3  C   UNL d   1     -10.912   5.838  -3.147 -0.09 +0.03    +0.194 C 
DOCKED: ATOM      4  C   UNL d   1     -11.062   6.725  -4.380 -0.08 +0.03    +0.194 C 
DOCKED: ATOM      5  C   UNL d   1     -10.683   6.041  -5.687 -0.10 +0.06    +0.194 C 
DOCKED: ATOM      6  C   UNL d   1     -11.254   4.629  -5.835 -0.06 +0.04    +0.194 C 
DOCKED: ENDROOT
DOCKED: BRANCH   1   7
DOCKED: ATOM      7  O   UNL d   1     -11.783   2.560  -4.775 -0.05 -0.01    -0.278 OA
DOCKED: BRANCH   7   8
DOCKED: ATOM      8  P   UNL d   1     -11.225   1.212  -4.123 -0.17 -0.02    +0.473 P 
DOCKED: ATOM      9  O   UNL d   1     -11.525  -0.029  -4.887 -0.11 -0.01    -0.228 OA
DOCKED: BRANCH   8  10
DOCKED: ATOM     10  O   UNL d   1      -9.662   1.483  -3.953 -0.28 +0.07    -0.303 OA
DOCKED: ATOM     11  H   UNL d   1      -9.354   2.076  -4.664 +0.08 -0.03    +0.222 HD
DOCKED: ENDBRANCH   8  10
DOCKED: BRANCH   8  12
DOCKED: ATOM     12  O   UNL d   1     -11.733   1.241  -2.618 -0.22 +0.01    -0.303 OA
DOCKED: ATOM     13  H   UNL d   1     -12.169   2.088  -2.374 +0.09 +0.01    +0.222 HD
DOCKED: ENDBRANCH   8  12
DOCKED: ENDBRANCH   7   8
DOCKED: ENDBRANCH   1   7
DOCKED: BRANCH   2  14
DOCKED: ATOM     14  O   UNL d   1     -12.957   4.595  -3.399 -0.02 -0.02    -0.278 OA
DOCKED: BRANCH  14  15
DOCKED: ATOM     15  P   UNL d   1     -13.790   4.174  -2.098 -0.01 +0.03    +0.473 P 
DOCKED: ATOM     16  O   UNL d   1     -13.210   3.083  -1.253 -0.09 -0.02    -0.228 OA
DOCKED: BRANCH  15  17
DOCKED: ATOM     17  O   UNL d   1     -13.978   5.539  -1.299 -0.02 -0.02    -0.303 OA
DOCKED: ATOM     18  H   UNL d   1     -13.174   5.763  -0.790 +0.04 +0.02    +0.222 HD
DOCKED: ENDBRANCH  15  17
DOCKED: BRANCH  15  19
DOCKED: ATOM     19  O   UNL d   1     -15.263   3.914  -2.637 -0.00 -0.02    -0.303 OA
DOCKED: ATOM     20  H   UNL d   1     -15.915   3.897  -1.912 +0.01 +0.01    +0.222 HD
DOCKED: ENDBRANCH  15  19
DOCKED: ENDBRANCH  14  15
DOCKED: ENDBRANCH   2  14
DOCKED: BRANCH   6  21
DOCKED: ATOM     21  O   UNL d   1     -10.548   4.009  -6.908 -0.06 -0.07    -0.278 OA
DOCKED: BRANCH  21  22
DOCKED: ATOM     22  P   UNL d   1      -9.075   3.447  -6.667 -0.09 +0.18    +0.473 P 
DOCKED: ATOM     23  O   UNL d   1      -8.353   3.870  -5.432 -0.91 -0.13    -0.228 OA
DOCKED: BRANCH  22  24
DOCKED: ATOM     24  O   UNL d   1      -9.299   1.878  -6.805 -0.19 +0.01    -0.303 OA
DOCKED: ATOM     25  H   UNL d   1      -9.966   1.601  -6.127 +0.07 -0.02    +0.222 HD
DOCKED: ENDBRANCH  22  24
DOCKED: BRANCH  22  26
DOCKED: ATOM     26  O   UNL d   1      -8.359   3.803  -8.057 -0.37 -0.20    -0.303 OA
DOCKED: ATOM     27  H   UNL d   1      -8.855   4.522  -8.499 +0.04 +0.15    +0.222 HD
DOCKED: ENDBRANCH  22  26
DOCKED: ENDBRANCH  21  22
DOCKED: ENDBRANCH   6  21
DOCKED: BRANCH   3  28
DOCKED: ATOM     28  O   UNL d   1     -11.630   6.502  -2.115 -0.05 -0.02    -0.278 OA
DOCKED: BRANCH  28  29
DOCKED: ATOM     29  P   UNL d   1     -11.097   6.471  -0.615 -0.10 +0.00    +0.473 P 
DOCKED: ATOM     30  O   UNL d   1      -9.764   7.089  -0.396 -0.22 +0.04    -0.228 OA
DOCKED: BRANCH  29  31
DOCKED: ATOM     31  O   UNL d   1     -12.341   7.140   0.138 -0.59 -0.03    -0.303 OA
DOCKED: ATOM     32  H   UNL d   1     -13.027   7.367  -0.531 +0.03 +0.01    +0.222 HD
DOCKED: ENDBRANCH  29  31
DOCKED: BRANCH  29  33
DOCKED: ATOM     33  O   UNL d   1     -11.246   4.931  -0.239 -0.16 -0.04    -0.303 OA
DOCKED: ATOM     34  H   UNL d   1     -12.182   4.652  -0.393 +0.06 +0.03    +0.222 HD
DOCKED: ENDBRANCH  29  33
DOCKED: ENDBRANCH  28  29
DOCKED: ENDBRANCH   3  28
DOCKED: BRANCH   5  35
DOCKED: ATOM     35  O   UNL d   1     -11.257   6.836  -6.722 -0.05 -0.06    -0.278 OA
DOCKED: BRANCH  35  36
DOCKED: ATOM     36  P   UNL d   1     -10.323   7.542  -7.806 -0.04 +0.16    +0.473 P 
DOCKED: ATOM     37  O   UNL d   1      -9.347   6.645  -8.498 +0.05 -0.16    -0.228 OA
DOCKED: BRANCH  36  38
DOCKED: ATOM     38  O   UNL d   1     -11.396   8.212  -8.774 -0.00 -0.04    -0.303 OA
DOCKED: ATOM     39  H   UNL d   1     -10.956   8.467  -9.613 +0.02 +0.02    +0.222 HD
DOCKED: ENDBRANCH  36  38
DOCKED: BRANCH  36  40
DOCKED: ATOM     40  O   UNL d   1      -9.723   8.769  -6.991 -0.12 -0.09    -0.303 OA
DOCKED: ATOM     41  H   UNL d   1     -10.138   8.855  -6.104 +0.03 +0.04    +0.222 HD
DOCKED: ENDBRANCH  36  40
DOCKED: ENDBRANCH  35  36
DOCKED: ENDBRANCH   5  35
DOCKED: BRANCH   4  42
DOCKED: ATOM     42  O   UNL d   1     -10.168   7.830  -4.209 -0.05 -0.05    -0.278 OA
DOCKED: BRANCH  42  43
DOCKED: ATOM     43  P   UNL d   1     -10.756   9.232  -3.726 -0.03 -0.02    +0.473 P 
DOCKED: ATOM     44  O   UNL d   1     -10.382  10.441  -4.512 -0.05 +0.03    -0.228 OA
DOCKED: BRANCH  43  45
DOCKED: ATOM     45  O   UNL d   1     -12.322   8.951  -3.669 -0.00 +0.00    -0.303 OA
DOCKED: ATOM     46  H   UNL d   1     -12.538   8.257  -3.015 +0.02 +0.00    +0.222 HD
DOCKED: ENDBRANCH  43  45
DOCKED: BRANCH  43  47
DOCKED: ATOM     47  O   UNL d   1     -10.376   9.273  -2.170 -0.04 +0.03    -0.303 OA
DOCKED: ATOM     48  H   UNL d   1     -10.729   8.472  -1.730 +0.05 -0.01    +0.222 HD
DOCKED: ENDBRANCH  43  47
DOCKED: ENDBRANCH  42  43
DOCKED: ENDBRANCH   4  42
DOCKED: TORSDOF 24
DOCKED: TER
DOCKED: ENDMDL
________________________________________________________________________________


	BEGINNING GENETIC ALGORITHM DOCKING 45 of 100
Run: 45 Seed: 322096701 1487404662 [ Run 45 of 100 GA/GALS ]
Beginning LAMARCKIAN GENETIC ALGORITHM (LGA), with a maximum of 25000000 energy evaluations.

Final-Value: -17.297


	FINAL GENETIC ALGORITHM DOCKED STATE
	_______________________________________________


Detailed state:  trans 21.375 11.864 -6.629 quatxyzw -0.139523 -0.553625 -0.764167 -0.300137 center 0.035 0.082 -0.065 ntor 24 -157.9078 -43.8727 -5.8887 18.8355 53.9362 -79.6904 23.3034 -98.2454 25.8687 -27.0467 115.9563 168.5209 74.8812 41.9822 134.7667 -89.4542 -156.8161 -127.2749 -20.6597 -24.8682 146.1190 -27.7555 -46.7623 150.3468
State:	 21.375  11.864  -6.629  -0.146 -0.580 -0.801 -145.068   -157.91  -43.87   -5.89   18.84   53.94  -79.69   23.30  -98.25   25.87  -27.05  115.96  168.52   74.88   41.98  134.77  -89.45 -156.82 -127.27  -20.66  -24.87  146.12  -27.76  -46.76  150.35

DOCKED: MODEL       45
DOCKED: USER    Run = 45
DOCKED: USER    DPF = D:/Protein_go_brrr/autodock/final/mut_Y35F/IHP/dock.dpf
DOCKED: USER  
DOCKED: USER    Estimated Free Energy of Binding    =   +2.44 kcal/mol  [=(1)+(2)+(3)-(4)]
DOCKED: USER    
DOCKED: USER    (1) Final Intermolecular Energy     =   -4.72 kcal/mol
DOCKED: USER        vdW + Hbond + desolv Energy     =   -4.43 kcal/mol
DOCKED: USER        Electrostatic Energy            =   -0.29 kcal/mol
DOCKED: USER    (2) Final Total Internal Energy     =  -12.58 kcal/mol
DOCKED: USER    (3) Torsional Free Energy           =   +7.16 kcal/mol
DOCKED: USER    (4) Unbound System's Energy  [=(2)] =  -12.58 kcal/mol
DOCKED: USER    
DOCKED: USER    
DOCKED: USER    NEWDPF move IHP_ideal_opt.pdbqt
DOCKED: USER    NEWDPF about 0.035000 0.082000 -0.065000
DOCKED: USER    NEWDPF tran0 21.374624 11.863648 -6.628892
DOCKED: USER    NEWDPF quaternion0 -0.139523 -0.553625 -0.764167 -0.300137
DOCKED: USER    NEWDPF axisangle0 -0.146266 -0.580382 -0.801101 -145.068333
DOCKED: USER    NEWDPF quat0 -0.146266 -0.580382 -0.801101 -145.068333
DOCKED: USER    NEWDPF dihe0 -157.91 -43.87 -5.89 18.84 53.94 -79.69 23.30 -98.25 25.87 -27.05 115.96 168.52 74.88 41.98 134.77 -89.45 -156.82 -127.27 -20.66 -24.87 146.12 -27.76 -46.76 150.35 
DOCKED: USER  keepresnum = 1 
DOCKED: USER  
DOCKED: REMARK  24 active torsions:
DOCKED: REMARK  status: ('A' for Active; 'I' for Inactive)
DOCKED: REMARK    1  A    between atoms: C_1  and  O_7 
DOCKED: REMARK    2  A    between atoms: C_2  and  O_12 
DOCKED: REMARK    3  A    between atoms: C_3  and  O_17 
DOCKED: REMARK    4  A    between atoms: C_4  and  O_22 
DOCKED: REMARK    5  A    between atoms: C_5  and  O_27 
DOCKED: REMARK    6  A    between atoms: C_6  and  O_32 
DOCKED: REMARK    7  A    between atoms: O_7  and  P_8 
DOCKED: REMARK    8  A    between atoms: P_8  and  O_10 
DOCKED: REMARK    9  A    between atoms: P_8  and  O_11 
DOCKED: REMARK   10  A    between atoms: O_12  and  P_13 
DOCKED: REMARK   11  A    between atoms: P_13  and  O_15 
DOCKED: REMARK   12  A    between atoms: P_13  and  O_16 
DOCKED: REMARK   13  A    between atoms: O_17  and  P_18 
DOCKED: REMARK   14  A    between atoms: P_18  and  O_20 
DOCKED: REMARK   15  A    between atoms: P_18  and  O_21 
DOCKED: REMARK   16  A    between atoms: O_22  and  P_23 
DOCKED: REMARK   17  A    between atoms: P_23  and  O_25 
DOCKED: REMARK   18  A    between atoms: P_23  and  O_26 
DOCKED: REMARK   19  A    between atoms: O_27  and  P_28 
DOCKED: REMARK   20  A    between atoms: P_28  and  O_30 
DOCKED: REMARK   21  A    between atoms: P_28  and  O_31 
DOCKED: REMARK   22  A    between atoms: O_32  and  P_33 
DOCKED: REMARK   23  A    between atoms: P_33  and  O_35 
DOCKED: REMARK   24  A    between atoms: P_33  and  O_36 
DOCKED: USER                              x       y       z     vdW  Elec       q    Type
DOCKED: USER                           _______ _______ _______ _____ _____    ______ ____
DOCKED: ROOT
DOCKED: ATOM      1  C   UNL d   1      19.757  12.402  -6.347 -0.13 -0.05    +0.194 C 
DOCKED: ATOM      2  C   UNL d   1      20.283  12.604  -7.769 -0.07 -0.04    +0.194 C 
DOCKED: ATOM      3  C   UNL d   1      21.720  13.130  -7.773 -0.01 -0.03    +0.194 C 
DOCKED: ATOM      4  C   UNL d   1      22.669  12.290  -6.921 -0.03 -0.03    +0.194 C 
DOCKED: ATOM      5  C   UNL d   1      22.134  11.966  -5.532 -0.08 -0.02    +0.194 C 
DOCKED: ATOM      6  C   UNL d   1      20.677  11.500  -5.522 -0.13 -0.03    +0.194 C 
DOCKED: ENDROOT
DOCKED: BRANCH   1   7
DOCKED: ATOM      7  O   UNL d   1      18.486  11.752  -6.429 -0.16 +0.10    -0.278 OA
DOCKED: BRANCH   7   8
DOCKED: ATOM      8  P   UNL d   1      17.352  12.169  -5.384 -0.20 -0.16    +0.473 P 
DOCKED: ATOM      9  O   UNL d   1      16.054  12.573  -5.990 -0.22 +0.07    -0.228 OA
DOCKED: BRANCH   8  10
DOCKED: ATOM     10  O   UNL d   1      17.229  10.902  -4.422 -0.37 +0.14    -0.303 OA
DOCKED: ATOM     11  H   UNL d   1      18.120  10.584  -4.184 -0.37 -0.12    +0.222 HD
DOCKED: ENDBRANCH   8  10
DOCKED: BRANCH   8  12
DOCKED: ATOM     12  O   UNL d   1      18.039  13.242  -4.435 -0.19 +0.10    -0.303 OA
DOCKED: ATOM     13  H   UNL d   1      18.487  12.838  -3.657 -0.42 -0.11    +0.222 HD
DOCKED: ENDBRANCH   8  12
DOCKED: ENDBRANCH   7   8
DOCKED: ENDBRANCH   1   7
DOCKED: BRANCH   2  14
DOCKED: ATOM     14  O   UNL d   1      20.254  11.350  -8.461 -0.15 +0.09    -0.278 OA
DOCKED: BRANCH  14  15
DOCKED: ATOM     15  P   UNL d   1      19.118  11.174  -9.576 -0.21 -0.18    +0.473 P 
DOCKED: ATOM     16  O   UNL d   1      19.523  11.426 -10.994 -0.14 +0.08    -0.228 OA
DOCKED: BRANCH  15  17
DOCKED: ATOM     17  O   UNL d   1      18.572   9.695  -9.343 -0.69 +0.15    -0.303 OA
DOCKED: ATOM     18  H   UNL d   1      18.942   9.076 -10.002 -0.50 -0.38    +0.222 HD
DOCKED: ENDBRANCH  15  17
DOCKED: BRANCH  15  19
DOCKED: ATOM     19  O   UNL d   1      17.901  12.050  -9.044 -0.10 +0.08    -0.303 OA
DOCKED: ATOM     20  H   UNL d   1      17.780  11.952  -8.082 +0.09 -0.06    +0.222 HD
DOCKED: ENDBRANCH  15  19
DOCKED: ENDBRANCH  14  15
DOCKED: ENDBRANCH   2  14
DOCKED: BRANCH   6  21
DOCKED: ATOM     21  O   UNL d   1      20.230  11.571  -4.170 -0.21 +0.04    -0.278 OA
DOCKED: BRANCH  21  22
DOCKED: ATOM     22  P   UNL d   1      20.593  12.846  -3.283 -0.08 -0.08    +0.473 P 
DOCKED: ATOM     23  O   UNL d   1      19.842  13.056  -2.011 -0.06 +0.07    -0.228 OA
DOCKED: BRANCH  22  24
DOCKED: ATOM     24  O   UNL d   1      22.167  12.685  -3.110 -0.03 +0.01    -0.303 OA
DOCKED: ATOM     25  H   UNL d   1      22.419  11.777  -3.414 +0.05 +0.00    +0.222 HD
DOCKED: ENDBRANCH  22  24
DOCKED: BRANCH  22  26
DOCKED: ATOM     26  O   UNL d   1      20.497  14.030  -4.359 -0.04 +0.05    -0.303 OA
DOCKED: ATOM     27  H   UNL d   1      19.682  14.547  -4.197 +0.05 -0.05    +0.222 HD
DOCKED: ENDBRANCH  22  26
DOCKED: ENDBRANCH  21  22
DOCKED: ENDBRANCH   6  21
DOCKED: BRANCH   3  28
DOCKED: ATOM     28  O   UNL d   1      22.212  13.023  -9.102 -0.00 +0.05    -0.278 OA
DOCKED: BRANCH  28  29
DOCKED: ATOM     29  P   UNL d   1      21.882  14.152 -10.176 +0.01 -0.07    +0.473 P 
DOCKED: ATOM     30  O   UNL d   1      21.048  13.718 -11.326 -0.00 +0.04    -0.228 OA
DOCKED: BRANCH  29  31
DOCKED: ATOM     31  O   UNL d   1      21.268  15.277  -9.217 +0.00 +0.04    -0.303 OA
DOCKED: ATOM     32  H   UNL d   1      22.005  15.704  -8.722 +0.00 -0.02    +0.222 HD
DOCKED: ENDBRANCH  29  31
DOCKED: BRANCH  29  33
DOCKED: ATOM     33  O   UNL d   1      23.328  14.727 -10.512 +0.00 +0.03    -0.303 OA
DOCKED: ATOM     34  H   UNL d   1      23.858  14.769  -9.678 +0.00 -0.02    +0.222 HD
DOCKED: ENDBRANCH  29  33
DOCKED: ENDBRANCH  28  29
DOCKED: ENDBRANCH   3  28
DOCKED: BRANCH   5  35
DOCKED: ATOM     35  O   UNL d   1      22.926  10.880  -5.056 -0.08 +0.00    -0.278 OA
DOCKED: BRANCH  35  36
DOCKED: ATOM     36  P   UNL d   1      24.337  11.155  -4.365 -0.01 -0.00    +0.473 P 
DOCKED: ATOM     37  O   UNL d   1      25.532  10.680  -5.129 -0.01 +0.01    -0.228 OA
DOCKED: BRANCH  36  38
DOCKED: ATOM     38  O   UNL d   1      24.288  12.730  -4.139 -0.00 +0.01    -0.303 OA
DOCKED: ATOM     39  H   UNL d   1      23.940  13.160  -4.950 +0.01 -0.01    +0.222 HD
DOCKED: ENDBRANCH  36  38
DOCKED: BRANCH  36  40
DOCKED: ATOM     40  O   UNL d   1      24.126  10.552  -2.908 -0.02 -0.02    -0.303 OA
DOCKED: ATOM     41  H   UNL d   1      23.487  11.084  -2.384 +0.04 +0.02    +0.222 HD
DOCKED: ENDBRANCH  36  40
DOCKED: ENDBRANCH  35  36
DOCKED: ENDBRANCH   5  35
DOCKED: BRANCH   4  42
DOCKED: ATOM     42  O   UNL d   1      23.861  13.064  -6.743 -0.00 +0.03    -0.278 OA
DOCKED: BRANCH  42  43
DOCKED: ATOM     43  P   UNL d   1      23.732  14.636  -6.505 +0.00 -0.04    +0.473 P 
DOCKED: ATOM     44  O   UNL d   1      23.545  15.499  -7.705 -0.00 +0.02    -0.228 OA
DOCKED: BRANCH  43  45
DOCKED: ATOM     45  O   UNL d   1      22.550  14.732  -5.444 -0.00 +0.03    -0.303 OA
DOCKED: ATOM     46  H   UNL d   1      22.641  14.053  -4.745 +0.02 -0.02    +0.222 HD
DOCKED: ENDBRANCH  43  45
DOCKED: BRANCH  43  47
DOCKED: ATOM     47  O   UNL d   1      25.011  14.976  -5.601 -0.00 +0.02    -0.303 OA
DOCKED: ATOM     48  H   UNL d   1      25.405  14.141  -5.273 +0.00 -0.01    +0.222 HD
DOCKED: ENDBRANCH  43  47
DOCKED: ENDBRANCH  42  43
DOCKED: ENDBRANCH   4  42
DOCKED: TORSDOF 24
DOCKED: TER
DOCKED: ENDMDL
________________________________________________________________________________


	BEGINNING GENETIC ALGORITHM DOCKING 46 of 100
Run: 46 Seed: 1484290725 262738264 [ Run 46 of 100 GA/GALS ]
Beginning LAMARCKIAN GENETIC ALGORITHM (LGA), with a maximum of 25000000 energy evaluations.

Final-Value: -17.750


	FINAL GENETIC ALGORITHM DOCKED STATE
	_______________________________________________


Detailed state:  trans -11.711 -17.948 -1.919 quatxyzw -0.660558 -0.005060 -0.740296 -0.124897 center 0.035 0.082 -0.065 ntor 24 65.0544 80.3609 148.2290 14.7011 150.1625 150.0180 -3.2433 -105.3594 161.8433 -15.9877 180.0000 -151.1295 -99.2472 -138.2399 40.3566 -53.3700 164.6027 104.6339 -144.0918 0.4637 -179.4833 143.4675 36.9476 -50.6067
State:	-11.711 -17.948  -1.919  -0.666 -0.005 -0.746 -165.650     65.05   80.36  148.23   14.70  150.16  150.02   -3.24 -105.36  161.84  -15.99  180.00 -151.13  -99.25 -138.24   40.36  -53.37  164.60  104.63 -144.09    0.46 -179.48  143.47   36.95  -50.61

DOCKED: MODEL       46
DOCKED: USER    Run = 46
DOCKED: USER    DPF = D:/Protein_go_brrr/autodock/final/mut_Y35F/IHP/dock.dpf
DOCKED: USER  
DOCKED: USER    Estimated Free Energy of Binding    =   +3.26 kcal/mol  [=(1)+(2)+(3)-(4)]
DOCKED: USER    
DOCKED: USER    (1) Final Intermolecular Energy     =   -3.90 kcal/mol
DOCKED: USER        vdW + Hbond + desolv Energy     =   -3.88 kcal/mol
DOCKED: USER        Electrostatic Energy            =   -0.03 kcal/mol
DOCKED: USER    (2) Final Total Internal Energy     =  -13.85 kcal/mol
DOCKED: USER    (3) Torsional Free Energy           =   +7.16 kcal/mol
DOCKED: USER    (4) Unbound System's Energy  [=(2)] =  -13.85 kcal/mol
DOCKED: USER    
DOCKED: USER    
DOCKED: USER    NEWDPF move IHP_ideal_opt.pdbqt
DOCKED: USER    NEWDPF about 0.035000 0.082000 -0.065000
DOCKED: USER    NEWDPF tran0 -11.710576 -17.947603 -1.919458
DOCKED: USER    NEWDPF quaternion0 -0.660558 -0.005060 -0.740296 -0.124897
DOCKED: USER    NEWDPF axisangle0 -0.665771 -0.005100 -0.746139 -165.650351
DOCKED: USER    NEWDPF quat0 -0.665771 -0.005100 -0.746139 -165.650351
DOCKED: USER    NEWDPF dihe0 65.05 80.36 148.23 14.70 150.16 150.02 -3.24 -105.36 161.84 -15.99 180.00 -151.13 -99.25 -138.24 40.36 -53.37 164.60 104.63 -144.09 0.46 -179.48 143.47 36.95 -50.61 
DOCKED: USER  keepresnum = 1 
DOCKED: USER  
DOCKED: REMARK  24 active torsions:
DOCKED: REMARK  status: ('A' for Active; 'I' for Inactive)
DOCKED: REMARK    1  A    between atoms: C_1  and  O_7 
DOCKED: REMARK    2  A    between atoms: C_2  and  O_12 
DOCKED: REMARK    3  A    between atoms: C_3  and  O_17 
DOCKED: REMARK    4  A    between atoms: C_4  and  O_22 
DOCKED: REMARK    5  A    between atoms: C_5  and  O_27 
DOCKED: REMARK    6  A    between atoms: C_6  and  O_32 
DOCKED: REMARK    7  A    between atoms: O_7  and  P_8 
DOCKED: REMARK    8  A    between atoms: P_8  and  O_10 
DOCKED: REMARK    9  A    between atoms: P_8  and  O_11 
DOCKED: REMARK   10  A    between atoms: O_12  and  P_13 
DOCKED: REMARK   11  A    between atoms: P_13  and  O_15 
DOCKED: REMARK   12  A    between atoms: P_13  and  O_16 
DOCKED: REMARK   13  A    between atoms: O_17  and  P_18 
DOCKED: REMARK   14  A    between atoms: P_18  and  O_20 
DOCKED: REMARK   15  A    between atoms: P_18  and  O_21 
DOCKED: REMARK   16  A    between atoms: O_22  and  P_23 
DOCKED: REMARK   17  A    between atoms: P_23  and  O_25 
DOCKED: REMARK   18  A    between atoms: P_23  and  O_26 
DOCKED: REMARK   19  A    between atoms: O_27  and  P_28 
DOCKED: REMARK   20  A    between atoms: P_28  and  O_30 
DOCKED: REMARK   21  A    between atoms: P_28  and  O_31 
DOCKED: REMARK   22  A    between atoms: O_32  and  P_33 
DOCKED: REMARK   23  A    between atoms: P_33  and  O_35 
DOCKED: REMARK   24  A    between atoms: P_33  and  O_36 
DOCKED: USER                              x       y       z     vdW  Elec       q    Type
DOCKED: USER                           _______ _______ _______ _____ _____    ______ ____
DOCKED: ROOT
DOCKED: ATOM      1  C   UNL d   1     -11.229 -17.174  -0.452 -0.14 +0.00    +0.194 C 
DOCKED: ATOM      2  C   UNL d   1     -11.623 -16.237  -1.594 -0.09 +0.00    +0.194 C 
DOCKED: ATOM      3  C   UNL d   1     -11.043 -16.699  -2.933 -0.16 +0.00    +0.194 C 
DOCKED: ATOM      4  C   UNL d   1     -11.355 -18.159  -3.251 -0.07 +0.00    +0.194 C 
DOCKED: ATOM      5  C   UNL d   1     -11.085 -19.117  -2.097 -0.02 -0.00    +0.194 C 
DOCKED: ATOM      6  C   UNL d   1     -11.611 -18.625  -0.747 -0.05 -0.00    +0.194 C 
DOCKED: ENDROOT
DOCKED: BRANCH   1   7
DOCKED: ATOM      7  O   UNL d   1     -11.944 -16.775   0.720 -0.21 +0.01    -0.278 OA
DOCKED: BRANCH   7   8
DOCKED: ATOM      8  P   UNL d   1     -13.338 -17.489   1.038 -0.16 -0.03    +0.473 P 
DOCKED: ATOM      9  O   UNL d   1     -14.276 -17.581  -0.114 -0.09 +0.01    -0.228 OA
DOCKED: BRANCH   8  10
DOCKED: ATOM     10  O   UNL d   1     -12.919 -18.913   1.623 -0.06 +0.01    -0.303 OA
DOCKED: ATOM     11  H   UNL d   1     -12.890 -19.567   0.900 +0.04 -0.01    +0.222 HD
DOCKED: ENDBRANCH   8  10
DOCKED: BRANCH   8  12
DOCKED: ATOM     12  O   UNL d   1     -13.895 -16.749   2.329 -0.28 +0.03    -0.303 OA
DOCKED: ATOM     13  H   UNL d   1     -13.677 -15.790   2.348 -0.46 -0.07    +0.222 HD
DOCKED: ENDBRANCH   8  12
DOCKED: ENDBRANCH   7   8
DOCKED: ENDBRANCH   1   7
DOCKED: BRANCH   2  14
DOCKED: ATOM     14  O   UNL d   1     -13.052 -16.207  -1.702 -0.10 +0.00    -0.278 OA
DOCKED: BRANCH  14  15
DOCKED: ATOM     15  P   UNL d   1     -13.731 -14.760  -1.807 -0.16 -0.01    +0.473 P 
DOCKED: ATOM     16  O   UNL d   1     -13.962 -14.031  -0.520 -0.33 +0.03    -0.228 OA
DOCKED: BRANCH  15  17
DOCKED: ATOM     17  O   UNL d   1     -12.786 -13.960  -2.809 -0.31 -0.01    -0.303 OA
DOCKED: ATOM     18  H   UNL d   1     -12.651 -14.458  -3.638 +0.10 +0.02    +0.222 HD
DOCKED: ENDBRANCH  15  17
DOCKED: BRANCH  15  19
DOCKED: ATOM     19  O   UNL d   1     -15.024 -14.994  -2.704 -0.10 +0.00    -0.303 OA
DOCKED: ATOM     20  H   UNL d   1     -14.827 -15.545  -3.484 +0.07 +0.01    +0.222 HD
DOCKED: ENDBRANCH  15  19
DOCKED: ENDBRANCH  14  15
DOCKED: ENDBRANCH   2  14
DOCKED: BRANCH   6  21
DOCKED: ATOM     21  O   UNL d   1     -10.994 -19.432   0.254 -0.03 +0.00    -0.278 OA
DOCKED: BRANCH  21  22
DOCKED: ATOM     22  P   UNL d   1      -9.487 -19.143   0.687 -0.05 +0.01    +0.473 P 
DOCKED: ATOM     23  O   UNL d   1      -9.203 -17.904   1.467 -0.23 +0.00    -0.228 OA
DOCKED: BRANCH  22  24
DOCKED: ATOM     24  O   UNL d   1      -9.093 -20.499   1.421 -0.03 -0.01    -0.303 OA
DOCKED: ATOM     25  H   UNL d   1      -8.804 -21.150   0.732 +0.03 +0.01    +0.222 HD
DOCKED: ENDBRANCH  22  24
DOCKED: BRANCH  22  26
DOCKED: ATOM     26  O   UNL d   1      -8.713 -19.286  -0.710 -0.03 -0.01    -0.303 OA
DOCKED: ATOM     27  H   UNL d   1      -9.237 -19.855  -1.311 +0.04 +0.01    +0.222 HD
DOCKED: ENDBRANCH  22  26
DOCKED: ENDBRANCH  21  22
DOCKED: ENDBRANCH   6  21
DOCKED: BRANCH   3  28
DOCKED: ATOM     28  O   UNL d   1     -11.679 -15.946  -3.958 -0.21 -0.02    -0.278 OA
DOCKED: BRANCH  28  29
DOCKED: ATOM     29  P   UNL d   1     -12.780 -16.623  -4.888 -0.10 +0.08    +0.473 P 
DOCKED: ATOM     30  O   UNL d   1     -12.255 -17.471  -5.989 -0.26 -0.04    -0.228 OA
DOCKED: BRANCH  29  31
DOCKED: ATOM     31  O   UNL d   1     -13.677 -17.346  -3.778 -0.04 -0.01    -0.303 OA
DOCKED: ATOM     32  H   UNL d   1     -13.876 -16.698  -3.064 +0.06 +0.00    +0.222 HD
DOCKED: ENDBRANCH  29  31
DOCKED: BRANCH  29  33
DOCKED: ATOM     33  O   UNL d   1     -13.676 -15.375  -5.307 -0.49 -0.08    -0.303 OA
DOCKED: ATOM     34  H   UNL d   1     -13.871 -14.835  -4.501 +0.09 +0.04    +0.222 HD
DOCKED: ENDBRANCH  29  33
DOCKED: ENDBRANCH  28  29
DOCKED: ENDBRANCH   3  28
DOCKED: BRANCH   5  35
DOCKED: ATOM     35  O   UNL d   1     -11.794 -20.314  -2.413 -0.00 +0.00    -0.278 OA
DOCKED: BRANCH  35  36
DOCKED: ATOM     36  P   UNL d   1     -11.517 -21.653  -1.592 +0.00 -0.00    +0.473 P 
DOCKED: ATOM     37  O   UNL d   1     -11.737 -22.927  -2.344 +0.00 +0.00    -0.228 OA
DOCKED: BRANCH  36  38
DOCKED: ATOM     38  O   UNL d   1     -10.018 -21.432  -1.103 +0.00 -0.00    -0.303 OA
DOCKED: ATOM     39  H   UNL d   1     -10.029 -21.004  -0.219 +0.02 +0.00    +0.222 HD
DOCKED: ENDBRANCH  36  38
DOCKED: BRANCH  36  40
DOCKED: ATOM     40  O   UNL d   1     -12.386 -21.431  -0.278 -0.00 +0.00    -0.303 OA
DOCKED: ATOM     41  H   UNL d   1     -12.126 -20.611   0.196 +0.02 -0.00    +0.222 HD
DOCKED: ENDBRANCH  36  40
DOCKED: ENDBRANCH  35  36
DOCKED: ENDBRANCH   5  35
DOCKED: BRANCH   4  42
DOCKED: ATOM     42  O   UNL d   1     -10.493 -18.543  -4.327 -0.06 +0.00    -0.278 OA
DOCKED: BRANCH  42  43
DOCKED: ATOM     43  P   UNL d   1     -10.857 -19.839  -5.183 -0.01 +0.00    +0.473 P 
DOCKED: ATOM     44  O   UNL d   1     -10.427 -19.863  -6.609 -0.06 -0.00    -0.228 OA
DOCKED: BRANCH  43  45
DOCKED: ATOM     45  O   UNL d   1     -10.255 -21.019  -4.301 -0.00 +0.00    -0.303 OA
DOCKED: ATOM     46  H   UNL d   1     -10.961 -21.530  -3.857 +0.01 -0.00    +0.222 HD
DOCKED: ENDBRANCH  43  45
DOCKED: BRANCH  43  47
DOCKED: ATOM     47  O   UNL d   1     -12.430 -20.014  -4.931 -0.01 -0.00    -0.303 OA
DOCKED: ATOM     48  H   UNL d   1     -12.826 -19.138  -4.742 +0.02 +0.00    +0.222 HD
DOCKED: ENDBRANCH  43  47
DOCKED: ENDBRANCH  42  43
DOCKED: ENDBRANCH   4  42
DOCKED: TORSDOF 24
DOCKED: TER
DOCKED: ENDMDL
________________________________________________________________________________


	BEGINNING GENETIC ALGORITHM DOCKING 47 of 100
Run: 47 Seed: 1631262947 717046361 [ Run 47 of 100 GA/GALS ]
Beginning LAMARCKIAN GENETIC ALGORITHM (LGA), with a maximum of 25000000 energy evaluations.

Final-Value: -18.520


	FINAL GENETIC ALGORITHM DOCKED STATE
	_______________________________________________


Detailed state:  trans 15.366 -0.353 8.135 quatxyzw 0.553106 -0.743257 0.247508 -0.283520 center 0.035 0.082 -0.065 ntor 24 -157.1130 0.1486 67.3910 63.9782 78.2518 169.6476 -22.1766 -106.4477 147.5663 4.6274 130.8706 173.9318 29.3332 -49.6923 16.2630 -44.3466 118.9087 106.6350 -135.5815 -7.4511 116.9770 138.5885 146.5522 -54.8339
State:	 15.366  -0.353   8.135   0.577 -0.775  0.258 -147.059   -157.11    0.15   67.39   63.98   78.25  169.65  -22.18 -106.45  147.57    4.63  130.87  173.93   29.33  -49.69   16.26  -44.35  118.91  106.63 -135.58   -7.45  116.98  138.59  146.55  -54.83

DOCKED: MODEL       47
DOCKED: USER    Run = 47
DOCKED: USER    DPF = D:/Protein_go_brrr/autodock/final/mut_Y35F/IHP/dock.dpf
DOCKED: USER  
DOCKED: USER    Estimated Free Energy of Binding    =   +3.57 kcal/mol  [=(1)+(2)+(3)-(4)]
DOCKED: USER    
DOCKED: USER    (1) Final Intermolecular Energy     =   -3.59 kcal/mol
DOCKED: USER        vdW + Hbond + desolv Energy     =   -3.34 kcal/mol
DOCKED: USER        Electrostatic Energy            =   -0.25 kcal/mol
DOCKED: USER    (2) Final Total Internal Energy     =  -14.93 kcal/mol
DOCKED: USER    (3) Torsional Free Energy           =   +7.16 kcal/mol
DOCKED: USER    (4) Unbound System's Energy  [=(2)] =  -14.93 kcal/mol
DOCKED: USER    
DOCKED: USER    
DOCKED: USER    NEWDPF move IHP_ideal_opt.pdbqt
DOCKED: USER    NEWDPF about 0.035000 0.082000 -0.065000
DOCKED: USER    NEWDPF tran0 15.366270 -0.352567 8.134682
DOCKED: USER    NEWDPF quaternion0 0.553106 -0.743257 0.247508 -0.283520
DOCKED: USER    NEWDPF axisangle0 0.576773 -0.775060 0.258099 -147.059245
DOCKED: USER    NEWDPF quat0 0.576773 -0.775060 0.258099 -147.059245
DOCKED: USER    NEWDPF dihe0 -157.11 0.15 67.39 63.98 78.25 169.65 -22.18 -106.45 147.57 4.63 130.87 173.93 29.33 -49.69 16.26 -44.35 118.91 106.63 -135.58 -7.45 116.98 138.59 146.55 -54.83 
DOCKED: USER  keepresnum = 1 
DOCKED: USER  
DOCKED: REMARK  24 active torsions:
DOCKED: REMARK  status: ('A' for Active; 'I' for Inactive)
DOCKED: REMARK    1  A    between atoms: C_1  and  O_7 
DOCKED: REMARK    2  A    between atoms: C_2  and  O_12 
DOCKED: REMARK    3  A    between atoms: C_3  and  O_17 
DOCKED: REMARK    4  A    between atoms: C_4  and  O_22 
DOCKED: REMARK    5  A    between atoms: C_5  and  O_27 
DOCKED: REMARK    6  A    between atoms: C_6  and  O_32 
DOCKED: REMARK    7  A    between atoms: O_7  and  P_8 
DOCKED: REMARK    8  A    between atoms: P_8  and  O_10 
DOCKED: REMARK    9  A    between atoms: P_8  and  O_11 
DOCKED: REMARK   10  A    between atoms: O_12  and  P_13 
DOCKED: REMARK   11  A    between atoms: P_13  and  O_15 
DOCKED: REMARK   12  A    between atoms: P_13  and  O_16 
DOCKED: REMARK   13  A    between atoms: O_17  and  P_18 
DOCKED: REMARK   14  A    between atoms: P_18  and  O_20 
DOCKED: REMARK   15  A    between atoms: P_18  and  O_21 
DOCKED: REMARK   16  A    between atoms: O_22  and  P_23 
DOCKED: REMARK   17  A    between atoms: P_23  and  O_25 
DOCKED: REMARK   18  A    between atoms: P_23  and  O_26 
DOCKED: REMARK   19  A    between atoms: O_27  and  P_28 
DOCKED: REMARK   20  A    between atoms: P_28  and  O_30 
DOCKED: REMARK   21  A    between atoms: P_28  and  O_31 
DOCKED: REMARK   22  A    between atoms: O_32  and  P_33 
DOCKED: REMARK   23  A    between atoms: P_33  and  O_35 
DOCKED: REMARK   24  A    between atoms: P_33  and  O_36 
DOCKED: USER                              x       y       z     vdW  Elec       q    Type
DOCKED: USER                           _______ _______ _______ _____ _____    ______ ____
DOCKED: ROOT
DOCKED: ATOM      1  C   UNL d   1      15.819  -1.982   8.487 -0.03 +0.03    +0.194 C 
DOCKED: ATOM      2  C   UNL d   1      16.931  -1.093   7.928 -0.03 +0.03    +0.194 C 
DOCKED: ATOM      3  C   UNL d   1      16.436  -0.228   6.767 -0.08 +0.04    +0.194 C 
DOCKED: ATOM      4  C   UNL d   1      15.176   0.566   7.104 -0.12 +0.05    +0.194 C 
DOCKED: ATOM      5  C   UNL d   1      14.082  -0.258   7.770 -0.16 +0.05    +0.194 C 
DOCKED: ATOM      6  C   UNL d   1      14.588  -1.169   8.890 -0.05 +0.04    +0.194 C 
DOCKED: ENDROOT
DOCKED: BRANCH   1   7
DOCKED: ATOM      7  O   UNL d   1      16.311  -2.623   9.666 -0.01 -0.04    -0.278 OA
DOCKED: BRANCH   7   8
DOCKED: ATOM      8  P   UNL d   1      15.862  -2.047  11.087 +0.00 +0.06    +0.473 P 
DOCKED: ATOM      9  O   UNL d   1      14.517  -2.485  11.549 -0.01 -0.03    -0.228 OA
DOCKED: BRANCH   8  10
DOCKED: ATOM     10  O   UNL d   1      17.038  -2.487  12.072 +0.00 -0.03    -0.303 OA
DOCKED: ATOM     11  H   UNL d   1      17.900  -2.308  11.652 +0.00 +0.02    +0.222 HD
DOCKED: ENDBRANCH   8  10
DOCKED: BRANCH   8  12
DOCKED: ATOM     12  O   UNL d   1      16.084  -0.477  10.985 -0.00 -0.05    -0.303 OA
DOCKED: ATOM     13  H   UNL d   1      16.946  -0.235  10.578 +0.00 +0.03    +0.222 HD
DOCKED: ENDBRANCH   8  12
DOCKED: ENDBRANCH   7   8
DOCKED: ENDBRANCH   1   7
DOCKED: BRANCH   2  14
DOCKED: ATOM     14  O   UNL d   1      17.408  -0.231   8.968 -0.00 -0.04    -0.278 OA
DOCKED: BRANCH  14  15
DOCKED: ATOM     15  P   UNL d   1      18.977  -0.287   9.282 -0.00 +0.05    +0.473 P 
DOCKED: ATOM     16  O   UNL d   1      19.814  -1.132   8.374 -0.00 -0.02    -0.228 OA
DOCKED: BRANCH  15  17
DOCKED: ATOM     17  O   UNL d   1      19.426   1.241   9.292 -0.00 -0.03    -0.303 OA
DOCKED: ATOM     18  H   UNL d   1      18.856   1.779   8.709 +0.00 +0.03    +0.222 HD
DOCKED: ENDBRANCH  15  17
DOCKED: BRANCH  15  19
DOCKED: ATOM     19  O   UNL d   1      19.059  -0.653  10.828 +0.00 -0.03    -0.303 OA
DOCKED: ATOM     20  H   UNL d   1      18.176  -0.822  11.206 +0.00 +0.02    +0.222 HD
DOCKED: ENDBRANCH  15  19
DOCKED: ENDBRANCH  14  15
DOCKED: ENDBRANCH   2  14
DOCKED: BRANCH   6  21
DOCKED: ATOM     21  O   UNL d   1      13.545  -2.100   9.167 -0.05 -0.06    -0.278 OA
DOCKED: BRANCH  21  22
DOCKED: ATOM     22  P   UNL d   1      12.338  -2.268   8.137 -0.19 +0.11    +0.473 P 
DOCKED: ATOM     23  O   UNL d   1      12.663  -2.394   6.687 -0.35 -0.03    -0.228 OA
DOCKED: BRANCH  22  24
DOCKED: ATOM     24  O   UNL d   1      11.551  -3.505   8.755 -0.16 -0.07    -0.303 OA
DOCKED: ATOM     25  H   UNL d   1      11.905  -3.672   9.666 +0.06 +0.05    +0.222 HD
DOCKED: ENDBRANCH  22  24
DOCKED: BRANCH  22  26
DOCKED: ATOM     26  O   UNL d   1      11.392  -1.038   8.541 -0.04 -0.12    -0.303 OA
DOCKED: ATOM     27  H   UNL d   1      11.767  -0.588   9.326 +0.06 +0.10    +0.222 HD
DOCKED: ENDBRANCH  22  26
DOCKED: ENDBRANCH  21  22
DOCKED: ENDBRANCH   6  21
DOCKED: BRANCH   3  28
DOCKED: ATOM     28  O   UNL d   1      17.436   0.746   6.500 -0.05 -0.05    -0.278 OA
DOCKED: BRANCH  28  29
DOCKED: ATOM     29  P   UNL d   1      17.170   2.282   6.826 -0.00 +0.11    +0.473 P 
DOCKED: ATOM     30  O   UNL d   1      16.182   2.961   5.949 -0.08 -0.06    -0.228 OA
DOCKED: BRANCH  29  31
DOCKED: ATOM     31  O   UNL d   1      16.811   2.180   8.382 -0.00 -0.07    -0.303 OA
DOCKED: ATOM     32  H   UNL d   1      17.289   1.408   8.764 +0.01 +0.04    +0.222 HD
DOCKED: ENDBRANCH  29  31
DOCKED: BRANCH  29  33
DOCKED: ATOM     33  O   UNL d   1      18.646   2.880   6.845 -0.01 -0.07    -0.303 OA
DOCKED: ATOM     34  H   UNL d   1      19.224   2.292   7.390 +0.01 +0.04    +0.222 HD
DOCKED: ENDBRANCH  29  33
DOCKED: ENDBRANCH  28  29
DOCKED: ENDBRANCH   3  28
DOCKED: BRANCH   5  35
DOCKED: ATOM     35  O   UNL d   1      13.194   0.686   8.365 -0.14 -0.13    -0.278 OA
DOCKED: BRANCH  35  36
DOCKED: ATOM     36  P   UNL d   1      13.523   1.307   9.797 -0.07 +0.27    +0.473 P 
DOCKED: ATOM     37  O   UNL d   1      12.762   2.545  10.152 -0.55 -0.31    -0.228 OA
DOCKED: BRANCH  36  38
DOCKED: ATOM     38  O   UNL d   1      13.247   0.070  10.761 -0.04 -0.11    -0.303 OA
DOCKED: ATOM     39  H   UNL d   1      14.005  -0.551  10.711 +0.03 +0.05    +0.222 HD
DOCKED: ENDBRANCH  36  38
DOCKED: BRANCH  36  40
DOCKED: ATOM     40  O   UNL d   1      15.109   1.420   9.763 -0.01 -0.10    -0.303 OA
DOCKED: ATOM     41  H   UNL d   1      15.518   0.660   9.292 +0.03 +0.05    +0.222 HD
DOCKED: ENDBRANCH  36  40
DOCKED: ENDBRANCH  35  36
DOCKED: ENDBRANCH   5  35
DOCKED: BRANCH   4  42
DOCKED: ATOM     42  O   UNL d   1      14.645   1.047   5.864 -0.21 -0.07    -0.278 OA
DOCKED: BRANCH  42  43
DOCKED: ATOM     43  P   UNL d   1      13.530   2.187   5.893 -0.24 +0.19    +0.473 P 
DOCKED: ATOM     44  O   UNL d   1      13.444   3.094   4.715 -0.55 -0.10    -0.228 OA
DOCKED: BRANCH  43  45
DOCKED: ATOM     45  O   UNL d   1      12.198   1.365   6.181 -0.33 -0.14    -0.303 OA
DOCKED: ATOM     46  H   UNL d   1      12.264   0.856   7.014 +0.09 +0.11    +0.222 HD
DOCKED: ENDBRANCH  43  45
DOCKED: BRANCH  43  47
DOCKED: ATOM     47  O   UNL d   1      13.779   2.907   7.303 -0.12 -0.18    -0.303 OA
DOCKED: ATOM     48  H   UNL d   1      14.449   2.403   7.809 +0.06 +0.10    +0.222 HD
DOCKED: ENDBRANCH  43  47
DOCKED: ENDBRANCH  42  43
DOCKED: ENDBRANCH   4  42
DOCKED: TORSDOF 24
DOCKED: TER
DOCKED: ENDMDL
________________________________________________________________________________


	BEGINNING GENETIC ALGORITHM DOCKING 48 of 100
Run: 48 Seed: 407670697 579095054 [ Run 48 of 100 GA/GALS ]
Beginning LAMARCKIAN GENETIC ALGORITHM (LGA), with a maximum of 25000000 energy evaluations.

Final-Value: -17.456


	FINAL GENETIC ALGORITHM DOCKED STATE
	_______________________________________________


Detailed state:  trans -1.858 -17.551 6.405 quatxyzw -0.051993 0.415562 -0.903168 0.094299 center 0.035 0.082 -0.065 ntor 24 96.1448 95.2963 37.9447 -0.5896 81.2936 128.2620 13.2278 -61.3453 139.1147 85.2176 109.1306 -19.2974 -48.1489 167.4099 55.9978 -115.8966 80.3838 41.0809 54.8009 -3.1699 -173.0066 33.8032 11.9876 -167.7531
State:	 -1.858 -17.551   6.405  -0.052  0.417 -0.907 169.178     96.14   95.30   37.94   -0.59   81.29  128.26   13.23  -61.35  139.11   85.22  109.13  -19.30  -48.15  167.41   56.00 -115.90   80.38   41.08   54.80   -3.17 -173.01   33.80   11.99 -167.75

DOCKED: MODEL       48
DOCKED: USER    Run = 48
DOCKED: USER    DPF = D:/Protein_go_brrr/autodock/final/mut_Y35F/IHP/dock.dpf
DOCKED: USER  
DOCKED: USER    Estimated Free Energy of Binding    =   +4.01 kcal/mol  [=(1)+(2)+(3)-(4)]
DOCKED: USER    
DOCKED: USER    (1) Final Intermolecular Energy     =   -3.14 kcal/mol
DOCKED: USER        vdW + Hbond + desolv Energy     =   -3.03 kcal/mol
DOCKED: USER        Electrostatic Energy            =   -0.11 kcal/mol
DOCKED: USER    (2) Final Total Internal Energy     =  -14.31 kcal/mol
DOCKED: USER    (3) Torsional Free Energy           =   +7.16 kcal/mol
DOCKED: USER    (4) Unbound System's Energy  [=(2)] =  -14.31 kcal/mol
DOCKED: USER    
DOCKED: USER    
DOCKED: USER    NEWDPF move IHP_ideal_opt.pdbqt
DOCKED: USER    NEWDPF about 0.035000 0.082000 -0.065000
DOCKED: USER    NEWDPF tran0 -1.857974 -17.550521 6.404566
DOCKED: USER    NEWDPF quaternion0 -0.051993 0.415562 -0.903168 0.094299
DOCKED: USER    NEWDPF axisangle0 -0.052226 0.417423 -0.907210 169.178022
DOCKED: USER    NEWDPF quat0 -0.052226 0.417423 -0.907210 169.178022
DOCKED: USER    NEWDPF dihe0 96.14 95.30 37.94 -0.59 81.29 128.26 13.23 -61.35 139.11 85.22 109.13 -19.30 -48.15 167.41 56.00 -115.90 80.38 41.08 54.80 -3.17 -173.01 33.80 11.99 -167.75 
DOCKED: USER  keepresnum = 1 
DOCKED: USER  
DOCKED: REMARK  24 active torsions:
DOCKED: REMARK  status: ('A' for Active; 'I' for Inactive)
DOCKED: REMARK    1  A    between atoms: C_1  and  O_7 
DOCKED: REMARK    2  A    between atoms: C_2  and  O_12 
DOCKED: REMARK    3  A    between atoms: C_3  and  O_17 
DOCKED: REMARK    4  A    between atoms: C_4  and  O_22 
DOCKED: REMARK    5  A    between atoms: C_5  and  O_27 
DOCKED: REMARK    6  A    between atoms: C_6  and  O_32 
DOCKED: REMARK    7  A    between atoms: O_7  and  P_8 
DOCKED: REMARK    8  A    between atoms: P_8  and  O_10 
DOCKED: REMARK    9  A    between atoms: P_8  and  O_11 
DOCKED: REMARK   10  A    between atoms: O_12  and  P_13 
DOCKED: REMARK   11  A    between atoms: P_13  and  O_15 
DOCKED: REMARK   12  A    between atoms: P_13  and  O_16 
DOCKED: REMARK   13  A    between atoms: O_17  and  P_18 
DOCKED: REMARK   14  A    between atoms: P_18  and  O_20 
DOCKED: REMARK   15  A    between atoms: P_18  and  O_21 
DOCKED: REMARK   16  A    between atoms: O_22  and  P_23 
DOCKED: REMARK   17  A    between atoms: P_23  and  O_25 
DOCKED: REMARK   18  A    between atoms: P_23  and  O_26 
DOCKED: REMARK   19  A    between atoms: O_27  and  P_28 
DOCKED: REMARK   20  A    between atoms: P_28  and  O_30 
DOCKED: REMARK   21  A    between atoms: P_28  and  O_31 
DOCKED: REMARK   22  A    between atoms: O_32  and  P_33 
DOCKED: REMARK   23  A    between atoms: P_33  and  O_35 
DOCKED: REMARK   24  A    between atoms: P_33  and  O_36 
DOCKED: USER                              x       y       z     vdW  Elec       q    Type
DOCKED: USER                           _______ _______ _______ _____ _____    ______ ____
DOCKED: ROOT
DOCKED: ATOM      1  C   UNL d   1      -2.880 -17.427   7.792 -0.12 -0.01    +0.194 C 
DOCKED: ATOM      2  C   UNL d   1      -1.495 -16.793   7.933 -0.11 -0.01    +0.194 C 
DOCKED: ATOM      3  C   UNL d   1      -0.400 -17.687   7.346 -0.10 -0.01    +0.194 C 
DOCKED: ATOM      4  C   UNL d   1      -0.689 -18.131   5.914 -0.03 -0.01    +0.194 C 
DOCKED: ATOM      5  C   UNL d   1      -2.100 -18.664   5.702 -0.19 -0.00    +0.194 C 
DOCKED: ATOM      6  C   UNL d   1      -3.191 -17.802   6.342 -0.23 -0.01    +0.194 C 
DOCKED: ENDROOT
DOCKED: BRANCH   1   7
DOCKED: ATOM      7  O   UNL d   1      -3.855 -16.465   8.201 -0.12 +0.01    -0.278 OA
DOCKED: BRANCH   7   8
DOCKED: ATOM      8  P   UNL d   1      -3.907 -16.045   9.742 -0.00 -0.01    +0.473 P 
DOCKED: ATOM      9  O   UNL d   1      -2.855 -16.658  10.598 -0.02 +0.01    -0.228 OA
DOCKED: BRANCH   8  10
DOCKED: ATOM     10  O   UNL d   1      -3.842 -14.452   9.711 -0.01 +0.00    -0.303 OA
DOCKED: ATOM     11  H   UNL d   1      -3.003 -14.166   9.305 +0.06 -0.01    +0.222 HD
DOCKED: ENDBRANCH   8  10
DOCKED: BRANCH   8  12
DOCKED: ATOM     12  O   UNL d   1      -5.408 -16.309  10.191 -0.05 -0.00    -0.303 OA
DOCKED: ATOM     13  H   UNL d   1      -5.731 -17.205   9.947 +0.03 -0.00    +0.222 HD
DOCKED: ENDBRANCH   8  12
DOCKED: ENDBRANCH   7   8
DOCKED: ENDBRANCH   1   7
DOCKED: BRANCH   2  14
DOCKED: ATOM     14  O   UNL d   1      -1.482 -15.540   7.238 -0.09 +0.00    -0.278 OA
DOCKED: BRANCH  14  15
DOCKED: ATOM     15  P   UNL d   1      -0.960 -14.270   8.062 -0.10 -0.03    +0.473 P 
DOCKED: ATOM     16  O   UNL d   1      -1.741 -13.002   7.908 -0.23 +0.02    -0.228 OA
DOCKED: BRANCH  15  17
DOCKED: ATOM     17  O   UNL d   1      -0.906 -14.782   9.570 -0.02 +0.02    -0.303 OA
DOCKED: ATOM     18  H   UNL d   1      -1.781 -15.099   9.865 +0.04 -0.01    +0.222 HD
DOCKED: ENDBRANCH  15  17
DOCKED: BRANCH  15  19
DOCKED: ATOM     19  O   UNL d   1       0.586 -14.172   7.702 -0.13 +0.03    -0.303 OA
DOCKED: ATOM     20  H   UNL d   1       1.069 -14.976   7.967 +0.05 -0.02    +0.222 HD
DOCKED: ENDBRANCH  15  19
DOCKED: ENDBRANCH  14  15
DOCKED: ENDBRANCH   2  14
DOCKED: BRANCH   6  21
DOCKED: ATOM     21  O   UNL d   1      -4.380 -18.588   6.359 -0.13 +0.00    -0.278 OA
DOCKED: BRANCH  21  22
DOCKED: ATOM     22  P   UNL d   1      -4.636 -19.612   7.555 -0.01 -0.00    +0.473 P 
DOCKED: ATOM     23  O   UNL d   1      -5.285 -19.099   8.796 -0.02 +0.00    -0.228 OA
DOCKED: BRANCH  22  24
DOCKED: ATOM     24  O   UNL d   1      -5.430 -20.779   6.820 -0.01 -0.00    -0.303 OA
DOCKED: ATOM     25  H   UNL d   1      -5.317 -20.661   5.842 +0.04 +0.00    +0.222 HD
DOCKED: ENDBRANCH  22  24
DOCKED: BRANCH  22  26
DOCKED: ATOM     26  O   UNL d   1      -3.183 -20.266   7.739 -0.01 +0.00    -0.303 OA
DOCKED: ATOM     27  H   UNL d   1      -2.822 -20.501   6.861 +0.03 -0.00    +0.222 HD
DOCKED: ENDBRANCH  22  26
DOCKED: ENDBRANCH  21  22
DOCKED: ENDBRANCH   6  21
DOCKED: BRANCH   3  28
DOCKED: ATOM     28  O   UNL d   1       0.789 -16.912   7.269 -0.11 +0.03    -0.278 OA
DOCKED: BRANCH  28  29
DOCKED: ATOM     29  P   UNL d   1       2.208 -17.588   7.531 -0.05 -0.07    +0.473 P 
DOCKED: ATOM     30  O   UNL d   1       3.187 -16.754   8.274 -0.03 +0.03    -0.228 OA
DOCKED: BRANCH  29  31
DOCKED: ATOM     31  O   UNL d   1       1.743 -18.953   8.225 -0.01 +0.02    -0.303 OA
DOCKED: ATOM     32  H   UNL d   1       1.235 -19.482   7.567 +0.02 -0.02    +0.222 HD
DOCKED: ENDBRANCH  29  31
DOCKED: BRANCH  29  33
DOCKED: ATOM     33  O   UNL d   1       2.628 -18.061   6.070 -0.04 +0.09    -0.303 OA
DOCKED: ATOM     34  H   UNL d   1       1.898 -17.843   5.440 -0.47 -0.14    +0.222 HD
DOCKED: ENDBRANCH  29  33
DOCKED: ENDBRANCH  28  29
DOCKED: ENDBRANCH   3  28
DOCKED: BRANCH   5  35
DOCKED: ATOM     35  O   UNL d   1      -2.317 -18.637   4.293 -0.26 +0.01    -0.278 OA
DOCKED: BRANCH  35  36
DOCKED: ATOM     36  P   UNL d   1      -3.141 -19.803   3.583 -0.14 +0.05    +0.473 P 
DOCKED: ATOM     37  O   UNL d   1      -4.316 -19.359   2.770 -0.23 -0.04    -0.228 OA
DOCKED: BRANCH  36  38
DOCKED: ATOM     38  O   UNL d   1      -2.007 -20.541   2.744 -0.13 -0.08    -0.303 OA
DOCKED: ATOM     39  H   UNL d   1      -1.395 -20.996   3.362 +0.05 +0.03    +0.222 HD
DOCKED: ENDBRANCH  36  38
DOCKED: BRANCH  36  40
DOCKED: ATOM     40  O   UNL d   1      -3.432 -20.797   4.790 -0.04 -0.02    -0.303 OA
DOCKED: ATOM     41  H   UNL d   1      -3.712 -20.315   5.600 +0.05 +0.01    +0.222 HD
DOCKED: ENDBRANCH  36  40
DOCKED: ENDBRANCH  35  36
DOCKED: ENDBRANCH   5  35
DOCKED: BRANCH   4  42
DOCKED: ATOM     42  O   UNL d   1       0.214 -19.202   5.622 -0.12 +0.03    -0.278 OA
DOCKED: BRANCH  42  43
DOCKED: ATOM     43  P   UNL d   1      -0.142 -20.671   6.130 -0.02 -0.02    +0.473 P 
DOCKED: ATOM     44  O   UNL d   1      -1.000 -21.513   5.250 -0.02 -0.00    -0.228 OA
DOCKED: BRANCH  43  45
DOCKED: ATOM     45  O   UNL d   1       1.292 -21.294   6.429 -0.01 +0.01    -0.303 OA
DOCKED: ATOM     46  H   UNL d   1       1.905 -20.624   6.791 +0.02 -0.01    +0.222 HD
DOCKED: ENDBRANCH  43  45
DOCKED: BRANCH  43  47
DOCKED: ATOM     47  O   UNL d   1      -0.704 -20.421   7.610 -0.01 +0.01    -0.303 OA
DOCKED: ATOM     48  H   UNL d   1      -1.241 -21.192   7.886 +0.01 -0.00    +0.222 HD
DOCKED: ENDBRANCH  43  47
DOCKED: ENDBRANCH  42  43
DOCKED: ENDBRANCH   4  42
DOCKED: TORSDOF 24
DOCKED: TER
DOCKED: ENDMDL
________________________________________________________________________________


	BEGINNING GENETIC ALGORITHM DOCKING 49 of 100
Run: 49 Seed: 1139740503 815294561 [ Run 49 of 100 GA/GALS ]
Beginning LAMARCKIAN GENETIC ALGORITHM (LGA), with a maximum of 25000000 energy evaluations.

Final-Value: -18.154


	FINAL GENETIC ALGORITHM DOCKED STATE
	_______________________________________________


Detailed state:  trans -16.849 2.701 3.246 quatxyzw -0.820391 -0.498631 0.261544 0.099602 center 0.035 0.082 -0.065 ntor 24 118.6370 124.8805 153.3944 1.3105 165.1615 69.7594 -126.1338 -151.6977 132.9355 76.7696 83.8736 -162.0159 -71.7552 -176.6021 -147.1746 -112.7968 111.4330 -31.6861 -151.5206 0.1623 11.2635 -19.4325 -17.8218 168.8502
State:	-16.849   2.701   3.246  -0.824 -0.501  0.263 168.568    118.64  124.88  153.39    1.31  165.16   69.76 -126.13 -151.70  132.94   76.77   83.87 -162.02  -71.76 -176.60 -147.17 -112.80  111.43  -31.69 -151.52    0.16   11.26  -19.43  -17.82  168.85

DOCKED: MODEL       49
DOCKED: USER    Run = 49
DOCKED: USER    DPF = D:/Protein_go_brrr/autodock/final/mut_Y35F/IHP/dock.dpf
DOCKED: USER  
DOCKED: USER    Estimated Free Energy of Binding    =   +2.81 kcal/mol  [=(1)+(2)+(3)-(4)]
DOCKED: USER    
DOCKED: USER    (1) Final Intermolecular Energy     =   -4.35 kcal/mol
DOCKED: USER        vdW + Hbond + desolv Energy     =   -4.25 kcal/mol
DOCKED: USER        Electrostatic Energy            =   -0.10 kcal/mol
DOCKED: USER    (2) Final Total Internal Energy     =  -13.81 kcal/mol
DOCKED: USER    (3) Torsional Free Energy           =   +7.16 kcal/mol
DOCKED: USER    (4) Unbound System's Energy  [=(2)] =  -13.81 kcal/mol
DOCKED: USER    
DOCKED: USER    
DOCKED: USER    NEWDPF move IHP_ideal_opt.pdbqt
DOCKED: USER    NEWDPF about 0.035000 0.082000 -0.065000
DOCKED: USER    NEWDPF tran0 -16.849495 2.701486 3.246125
DOCKED: USER    NEWDPF quaternion0 -0.820391 -0.498631 0.261544 0.099602
DOCKED: USER    NEWDPF axisangle0 -0.824491 -0.501123 0.262851 168.567507
DOCKED: USER    NEWDPF quat0 -0.824491 -0.501123 0.262851 168.567507
DOCKED: USER    NEWDPF dihe0 118.64 124.88 153.39 1.31 165.16 69.76 -126.13 -151.70 132.94 76.77 83.87 -162.02 -71.76 -176.60 -147.17 -112.80 111.43 -31.69 -151.52 0.16 11.26 -19.43 -17.82 168.85 
DOCKED: USER  keepresnum = 1 
DOCKED: USER  
DOCKED: REMARK  24 active torsions:
DOCKED: REMARK  status: ('A' for Active; 'I' for Inactive)
DOCKED: REMARK    1  A    between atoms: C_1  and  O_7 
DOCKED: REMARK    2  A    between atoms: C_2  and  O_12 
DOCKED: REMARK    3  A    between atoms: C_3  and  O_17 
DOCKED: REMARK    4  A    between atoms: C_4  and  O_22 
DOCKED: REMARK    5  A    between atoms: C_5  and  O_27 
DOCKED: REMARK    6  A    between atoms: C_6  and  O_32 
DOCKED: REMARK    7  A    between atoms: O_7  and  P_8 
DOCKED: REMARK    8  A    between atoms: P_8  and  O_10 
DOCKED: REMARK    9  A    between atoms: P_8  and  O_11 
DOCKED: REMARK   10  A    between atoms: O_12  and  P_13 
DOCKED: REMARK   11  A    between atoms: P_13  and  O_15 
DOCKED: REMARK   12  A    between atoms: P_13  and  O_16 
DOCKED: REMARK   13  A    between atoms: O_17  and  P_18 
DOCKED: REMARK   14  A    between atoms: P_18  and  O_20 
DOCKED: REMARK   15  A    between atoms: P_18  and  O_21 
DOCKED: REMARK   16  A    between atoms: O_22  and  P_23 
DOCKED: REMARK   17  A    between atoms: P_23  and  O_25 
DOCKED: REMARK   18  A    between atoms: P_23  and  O_26 
DOCKED: REMARK   19  A    between atoms: O_27  and  P_28 
DOCKED: REMARK   20  A    between atoms: P_28  and  O_30 
DOCKED: REMARK   21  A    between atoms: P_28  and  O_31 
DOCKED: REMARK   22  A    between atoms: O_32  and  P_33 
DOCKED: REMARK   23  A    between atoms: P_33  and  O_35 
DOCKED: REMARK   24  A    between atoms: P_33  and  O_36 
DOCKED: USER                              x       y       z     vdW  Elec       q    Type
DOCKED: USER                           _______ _______ _______ _____ _____    ______ ____
DOCKED: ROOT
DOCKED: ATOM      1  C   UNL d   1     -17.425   3.755   2.003 -0.00 +0.02    +0.194 C 
DOCKED: ATOM      2  C   UNL d   1     -18.459   3.343   3.052 -0.02 +0.03    +0.194 C 
DOCKED: ATOM      3  C   UNL d   1     -18.363   1.854   3.389 -0.08 +0.03    +0.194 C 
DOCKED: ATOM      4  C   UNL d   1     -16.951   1.413   3.767 -0.17 +0.04    +0.194 C 
DOCKED: ATOM      5  C   UNL d   1     -15.872   1.899   2.809 -0.11 +0.04    +0.194 C 
DOCKED: ATOM      6  C   UNL d   1     -16.004   3.374   2.423 -0.03 +0.03    +0.194 C 
DOCKED: ENDROOT
DOCKED: BRANCH   1   7
DOCKED: ATOM      7  O   UNL d   1     -17.463   5.178   1.873 +0.00 -0.03    -0.278 OA
DOCKED: BRANCH   7   8
DOCKED: ATOM      8  P   UNL d   1     -16.584   6.056   2.877 +0.01 +0.07    +0.473 P 
DOCKED: ATOM      9  O   UNL d   1     -16.178   5.365   4.131 -0.01 -0.06    -0.228 OA
DOCKED: BRANCH   8  10
DOCKED: ATOM     10  O   UNL d   1     -15.345   6.531   1.992 -0.02 -0.04    -0.303 OA
DOCKED: ATOM     11  H   UNL d   1     -15.062   5.802   1.408 +0.02 +0.03    +0.222 HD
DOCKED: ENDBRANCH   8  10
DOCKED: BRANCH   8  12
DOCKED: ATOM     12  O   UNL d   1     -17.397   7.408   3.062 +0.00 -0.03    -0.303 OA
DOCKED: ATOM     13  H   UNL d   1     -18.143   7.326   3.698 +0.00 +0.03    +0.222 HD
DOCKED: ENDBRANCH   8  12
DOCKED: ENDBRANCH   7   8
DOCKED: ENDBRANCH   1   7
DOCKED: BRANCH   2  14
DOCKED: ATOM     14  O   UNL d   1     -18.235   4.098   4.250 -0.02 -0.05    -0.278 OA
DOCKED: BRANCH  14  15
DOCKED: ATOM     15  P   UNL d   1     -19.519   4.791   4.910 +0.00 +0.06    +0.473 P 
DOCKED: ATOM     16  O   UNL d   1     -19.475   6.279   5.064 -0.00 -0.03    -0.228 OA
DOCKED: BRANCH  15  17
DOCKED: ATOM     17  O   UNL d   1     -20.734   4.299   4.004 -0.00 -0.03    -0.303 OA
DOCKED: ATOM     18  H   UNL d   1     -20.786   3.324   3.985 +0.02 +0.02    +0.222 HD
DOCKED: ENDBRANCH  15  17
DOCKED: BRANCH  15  19
DOCKED: ATOM     19  O   UNL d   1     -19.768   3.970   6.250 -0.05 -0.05    -0.303 OA
DOCKED: ATOM     20  H   UNL d   1     -19.910   3.022   6.071 +0.03 +0.03    +0.222 HD
DOCKED: ENDBRANCH  15  19
DOCKED: ENDBRANCH  14  15
DOCKED: ENDBRANCH   2  14
DOCKED: BRANCH   6  21
DOCKED: ATOM     21  O   UNL d   1     -15.164   3.581   1.291 -0.02 -0.04    -0.278 OA
DOCKED: BRANCH  21  22
DOCKED: ATOM     22  P   UNL d   1     -13.649   4.036   1.501 -0.07 +0.09    +0.473 P 
DOCKED: ATOM     23  O   UNL d   1     -13.230   5.362   0.962 -0.42 -0.06    -0.228 OA
DOCKED: BRANCH  22  24
DOCKED: ATOM     24  O   UNL d   1     -13.475   3.870   3.075 -0.21 -0.10    -0.303 OA
DOCKED: ATOM     25  H   UNL d   1     -13.020   3.006   3.245 +0.12 +0.07    +0.222 HD
DOCKED: ENDBRANCH  22  24
DOCKED: BRANCH  22  26
DOCKED: ATOM     26  O   UNL d   1     -12.847   2.765   0.944 -0.16 -0.05    -0.303 OA
DOCKED: ATOM     27  H   UNL d   1     -12.493   2.251   1.698 +0.10 +0.03    +0.222 HD
DOCKED: ENDBRANCH  22  26
DOCKED: ENDBRANCH  21  22
DOCKED: ENDBRANCH   6  21
DOCKED: BRANCH   3  28
DOCKED: ATOM     28  O   UNL d   1     -19.153   1.625   4.550 -0.08 -0.04    -0.278 OA
DOCKED: BRANCH  28  29
DOCKED: ATOM     29  P   UNL d   1     -20.687   1.218   4.411 -0.06 +0.04    +0.473 P 
DOCKED: ATOM     30  O   UNL d   1     -21.612   1.871   5.372 -0.06 -0.01    -0.228 OA
DOCKED: BRANCH  29  31
DOCKED: ATOM     31  O   UNL d   1     -20.918   1.525   2.858 -0.01 -0.03    -0.303 OA
DOCKED: ATOM     32  H   UNL d   1     -20.968   2.501   2.734 +0.01 +0.02    +0.222 HD
DOCKED: ENDBRANCH  29  31
DOCKED: BRANCH  29  33
DOCKED: ATOM     33  O   UNL d   1     -20.615  -0.372   4.449 -0.12 -0.03    -0.303 OA
DOCKED: ATOM     34  H   UNL d   1     -20.554  -0.713   3.523 +0.04 +0.03    +0.222 HD
DOCKED: ENDBRANCH  29  33
DOCKED: ENDBRANCH  28  29
DOCKED: ENDBRANCH   3  28
DOCKED: BRANCH   5  35
DOCKED: ATOM     35  O   UNL d   1     -14.639   1.758   3.511 -0.17 -0.07    -0.278 OA
DOCKED: BRANCH  35  36
DOCKED: ATOM     36  P   UNL d   1     -13.555   0.691   3.028 -0.30 +0.11    +0.473 P 
DOCKED: ATOM     37  O   UNL d   1     -12.143   0.982   3.425 -0.38 -0.03    -0.228 OA
DOCKED: BRANCH  36  38
DOCKED: ATOM     38  O   UNL d   1     -14.139  -0.663   3.630 -0.71 -0.13    -0.303 OA
DOCKED: ATOM     39  H   UNL d   1     -15.013  -0.845   3.222 +0.12 +0.09    +0.222 HD
DOCKED: ENDBRANCH  36  38
DOCKED: BRANCH  36  40
DOCKED: ATOM     40  O   UNL d   1     -13.859   0.580   1.470 -0.23 -0.06    -0.303 OA
DOCKED: ATOM     41  H   UNL d   1     -14.138   1.443   1.091 +0.10 +0.04    +0.222 HD
DOCKED: ENDBRANCH  36  40
DOCKED: ENDBRANCH  35  36
DOCKED: ENDBRANCH   5  35
DOCKED: BRANCH   4  42
DOCKED: ATOM     42  O   UNL d   1     -16.939  -0.018   3.724 -0.42 -0.10    -0.278 OA
DOCKED: BRANCH  42  43
DOCKED: ATOM     43  P   UNL d   1     -17.334  -0.753   2.365 -0.19 +0.14    +0.473 P 
DOCKED: ATOM     44  O   UNL d   1     -17.386   0.074   1.127 -0.09 -0.05    -0.228 OA
DOCKED: BRANCH  43  45
DOCKED: ATOM     45  O   UNL d   1     -16.293  -1.955   2.302 -0.30 -0.11    -0.303 OA
DOCKED: ATOM     46  H   UNL d   1     -15.810  -2.054   3.146 -0.22 +0.06    +0.222 HD
DOCKED: ENDBRANCH  43  45
DOCKED: BRANCH  43  47
DOCKED: ATOM     47  O   UNL d   1     -18.692  -1.517   2.743 -0.18 -0.09    -0.303 OA
DOCKED: ATOM     48  H   UNL d   1     -19.058  -1.136   3.567 +0.06 +0.06    +0.222 HD
DOCKED: ENDBRANCH  43  47
DOCKED: ENDBRANCH  42  43
DOCKED: ENDBRANCH   4  42
DOCKED: TORSDOF 24
DOCKED: TER
DOCKED: ENDMDL
________________________________________________________________________________


	BEGINNING GENETIC ALGORITHM DOCKING 50 of 100
Run: 50 Seed: 1849657165 108005664 [ Run 50 of 100 GA/GALS ]
Beginning LAMARCKIAN GENETIC ALGORITHM (LGA), with a maximum of 25000000 energy evaluations.

Final-Value: -15.876


	FINAL GENETIC ALGORITHM DOCKED STATE
	_______________________________________________


Detailed state:  trans -14.738 -17.235 9.393 quatxyzw 0.022420 -0.611052 0.119471 -0.782202 center 0.035 0.082 -0.065 ntor 24 70.9141 125.6818 61.3218 100.1511 -68.0419 -179.7315 -75.7669 -152.8982 2.9877 23.5582 -144.2294 179.6257 -90.4683 -69.9944 14.9681 -37.9346 -117.5624 -6.6146 -146.5615 -7.9101 112.3374 140.3987 143.6007 139.1254
State:	-14.738 -17.235   9.393   0.036 -0.981  0.192 -77.075     70.91  125.68   61.32  100.15  -68.04 -179.73  -75.77 -152.90    2.99   23.56 -144.23  179.63  -90.47  -69.99   14.97  -37.93 -117.56   -6.61 -146.56   -7.91  112.34  140.40  143.60  139.13

DOCKED: MODEL       50
DOCKED: USER    Run = 50
DOCKED: USER    DPF = D:/Protein_go_brrr/autodock/final/mut_Y35F/IHP/dock.dpf
DOCKED: USER  
DOCKED: USER    Estimated Free Energy of Binding    =   +3.63 kcal/mol  [=(1)+(2)+(3)-(4)]
DOCKED: USER    
DOCKED: USER    (1) Final Intermolecular Energy     =   -3.53 kcal/mol
DOCKED: USER        vdW + Hbond + desolv Energy     =   -3.40 kcal/mol
DOCKED: USER        Electrostatic Energy            =   -0.14 kcal/mol
DOCKED: USER    (2) Final Total Internal Energy     =  -12.34 kcal/mol
DOCKED: USER    (3) Torsional Free Energy           =   +7.16 kcal/mol
DOCKED: USER    (4) Unbound System's Energy  [=(2)] =  -12.34 kcal/mol
DOCKED: USER    
DOCKED: USER    
DOCKED: USER    NEWDPF move IHP_ideal_opt.pdbqt
DOCKED: USER    NEWDPF about 0.035000 0.082000 -0.065000
DOCKED: USER    NEWDPF tran0 -14.737645 -17.234750 9.392851
DOCKED: USER    NEWDPF quaternion0 0.022420 -0.611052 0.119471 -0.782202
DOCKED: USER    NEWDPF axisangle0 0.035986 -0.980782 0.191759 -77.074759
DOCKED: USER    NEWDPF quat0 0.035986 -0.980782 0.191759 -77.074759
DOCKED: USER    NEWDPF dihe0 70.91 125.68 61.32 100.15 -68.04 -179.73 -75.77 -152.90 2.99 23.56 -144.23 179.63 -90.47 -69.99 14.97 -37.93 -117.56 -6.61 -146.56 -7.91 112.34 140.40 143.60 139.13 
DOCKED: USER  keepresnum = 1 
DOCKED: USER  
DOCKED: REMARK  24 active torsions:
DOCKED: REMARK  status: ('A' for Active; 'I' for Inactive)
DOCKED: REMARK    1  A    between atoms: C_1  and  O_7 
DOCKED: REMARK    2  A    between atoms: C_2  and  O_12 
DOCKED: REMARK    3  A    between atoms: C_3  and  O_17 
DOCKED: REMARK    4  A    between atoms: C_4  and  O_22 
DOCKED: REMARK    5  A    between atoms: C_5  and  O_27 
DOCKED: REMARK    6  A    between atoms: C_6  and  O_32 
DOCKED: REMARK    7  A    between atoms: O_7  and  P_8 
DOCKED: REMARK    8  A    between atoms: P_8  and  O_10 
DOCKED: REMARK    9  A    between atoms: P_8  and  O_11 
DOCKED: REMARK   10  A    between atoms: O_12  and  P_13 
DOCKED: REMARK   11  A    between atoms: P_13  and  O_15 
DOCKED: REMARK   12  A    between atoms: P_13  and  O_16 
DOCKED: REMARK   13  A    between atoms: O_17  and  P_18 
DOCKED: REMARK   14  A    between atoms: P_18  and  O_20 
DOCKED: REMARK   15  A    between atoms: P_18  and  O_21 
DOCKED: REMARK   16  A    between atoms: O_22  and  P_23 
DOCKED: REMARK   17  A    between atoms: P_23  and  O_25 
DOCKED: REMARK   18  A    between atoms: P_23  and  O_26 
DOCKED: REMARK   19  A    between atoms: O_27  and  P_28 
DOCKED: REMARK   20  A    between atoms: P_28  and  O_30 
DOCKED: REMARK   21  A    between atoms: P_28  and  O_31 
DOCKED: REMARK   22  A    between atoms: O_32  and  P_33 
DOCKED: REMARK   23  A    between atoms: P_33  and  O_35 
DOCKED: REMARK   24  A    between atoms: P_33  and  O_36 
DOCKED: USER                              x       y       z     vdW  Elec       q    Type
DOCKED: USER                           _______ _______ _______ _____ _____    ______ ____
DOCKED: ROOT
DOCKED: ATOM      1  C   UNL d   1     -15.018 -18.040  10.895 -0.01 -0.00    +0.194 C 
DOCKED: ATOM      2  C   UNL d   1     -14.775 -18.952   9.692 -0.01 -0.01    +0.194 C 
DOCKED: ATOM      3  C   UNL d   1     -15.529 -18.467   8.452 -0.04 -0.01    +0.194 C 
DOCKED: ATOM      4  C   UNL d   1     -15.267 -16.999   8.125 -0.16 -0.02    +0.194 C 
DOCKED: ATOM      5  C   UNL d   1     -15.386 -16.066   9.323 -0.13 -0.00    +0.194 C 
DOCKED: ATOM      6  C   UNL d   1     -14.684 -16.581  10.581 -0.04 +0.00    +0.194 C 
DOCKED: ENDROOT
DOCKED: BRANCH   1   7
DOCKED: ATOM      7  O   UNL d   1     -14.152 -18.457  11.953 -0.00 +0.00    -0.278 OA
DOCKED: BRANCH   7   8
DOCKED: ATOM      8  P   UNL d   1     -12.707 -17.784  12.062 +0.01 +0.00    +0.473 P 
DOCKED: ATOM      9  O   UNL d   1     -12.028 -17.534  10.761 -0.01 -0.00    -0.228 OA
DOCKED: BRANCH   8  10
DOCKED: ATOM     10  O   UNL d   1     -12.963 -16.453  12.903 -0.00 -0.01    -0.303 OA
DOCKED: ATOM     11  H   UNL d   1     -13.219 -15.730  12.300 +0.02 +0.02    +0.222 HD
DOCKED: ENDBRANCH   8  10
DOCKED: BRANCH   8  12
DOCKED: ATOM     12  O   UNL d   1     -11.909 -18.684  13.099 +0.00 +0.00    -0.303 OA
DOCKED: ATOM     13  H   UNL d   1     -11.545 -19.505  12.698 +0.00 -0.00    +0.222 HD
DOCKED: ENDBRANCH   8  12
DOCKED: ENDBRANCH   7   8
DOCKED: ENDBRANCH   1   7
DOCKED: BRANCH   2  14
DOCKED: ATOM     14  O   UNL d   1     -13.373 -18.971   9.395 -0.01 +0.01    -0.278 OA
DOCKED: BRANCH  14  15
DOCKED: ATOM     15  P   UNL d   1     -12.665 -20.408   9.376 +0.00 -0.01    +0.473 P 
DOCKED: ATOM     16  O   UNL d   1     -13.428 -21.541   9.986 +0.00 +0.01    -0.228 OA
DOCKED: BRANCH  15  17
DOCKED: ATOM     17  O   UNL d   1     -12.322 -20.650   7.839 -0.01 +0.01    -0.303 OA
DOCKED: ATOM     18  H   UNL d   1     -13.007 -20.263   7.261 +0.02 -0.00    +0.222 HD
DOCKED: ENDBRANCH  15  17
DOCKED: BRANCH  15  19
DOCKED: ATOM     19  O   UNL d   1     -11.220 -20.146   9.988 -0.00 +0.01    -0.303 OA
DOCKED: ATOM     20  H   UNL d   1     -11.255 -19.528  10.742 +0.01 -0.00    +0.222 HD
DOCKED: ENDBRANCH  15  19
DOCKED: ENDBRANCH  14  15
DOCKED: ENDBRANCH   2  14
DOCKED: BRANCH   6  21
DOCKED: ATOM     21  O   UNL d   1     -15.164 -15.798  11.672 -0.02 -0.01    -0.278 OA
DOCKED: BRANCH  21  22
DOCKED: ATOM     22  P   UNL d   1     -16.402 -14.815  11.455 -0.04 +0.01    +0.473 P 
DOCKED: ATOM     23  O   UNL d   1     -17.585 -15.326  10.705 -0.09 +0.01    -0.228 OA
DOCKED: BRANCH  22  24
DOCKED: ATOM     24  O   UNL d   1     -16.707 -14.344  12.945 -0.01 -0.01    -0.303 OA
DOCKED: ATOM     25  H   UNL d   1     -17.686 -14.399  13.091 +0.01 +0.00    +0.222 HD
DOCKED: ENDBRANCH  22  24
DOCKED: BRANCH  22  26
DOCKED: ATOM     26  O   UNL d   1     -15.685 -13.520  10.840 -0.10 -0.04    -0.303 OA
DOCKED: ATOM     27  H   UNL d   1     -14.740 -13.721  10.678 +0.06 +0.04    +0.222 HD
DOCKED: ENDBRANCH  22  26
DOCKED: ENDBRANCH  21  22
DOCKED: ENDBRANCH   6  21
DOCKED: BRANCH   3  28
DOCKED: ATOM     28  O   UNL d   1     -15.033 -19.196   7.336 -0.03 +0.02    -0.278 OA
DOCKED: BRANCH  28  29
DOCKED: ATOM     29  P   UNL d   1     -14.127 -18.475   6.243 -0.03 +0.02    +0.473 P 
DOCKED: ATOM     30  O   UNL d   1     -14.790 -17.390   5.475 -0.26 +0.01    -0.228 OA
DOCKED: BRANCH  29  31
DOCKED: ATOM     31  O   UNL d   1     -12.873 -18.062   7.147 -0.05 -0.01    -0.303 OA
DOCKED: ATOM     32  H   UNL d   1     -13.169 -18.001   8.085 +0.05 -0.00    +0.222 HD
DOCKED: ENDBRANCH  29  31
DOCKED: BRANCH  29  33
DOCKED: ATOM     33  O   UNL d   1     -13.566 -19.709   5.407 -0.38 -0.03    -0.303 OA
DOCKED: ATOM     34  H   UNL d   1     -12.687 -19.973   5.775 +0.03 +0.02    +0.222 HD
DOCKED: ENDBRANCH  29  33
DOCKED: ENDBRANCH  28  29
DOCKED: ENDBRANCH   3  28
DOCKED: BRANCH   5  35
DOCKED: ATOM     35  O   UNL d   1     -14.730 -14.859   8.941 -0.20 -0.01    -0.278 OA
DOCKED: BRANCH  35  36
DOCKED: ATOM     36  P   UNL d   1     -13.153 -14.705   9.131 -0.20 +0.04    +0.473 P 
DOCKED: ATOM     37  O   UNL d   1     -12.689 -14.524  10.541 -0.09 -0.04    -0.228 OA
DOCKED: BRANCH  36  38
DOCKED: ATOM     38  O   UNL d   1     -12.609 -16.026   8.427 -0.16 -0.00    -0.303 OA
DOCKED: ATOM     39  H   UNL d   1     -12.887 -16.807   8.952 +0.06 -0.00    +0.222 HD
DOCKED: ENDBRANCH  36  38
DOCKED: BRANCH  36  40
DOCKED: ATOM     40  O   UNL d   1     -12.798 -13.547   8.100 -0.34 -0.03    -0.303 OA
DOCKED: ATOM     41  H   UNL d   1     -13.509 -13.423   7.432 -0.45 -0.04    +0.222 HD
DOCKED: ENDBRANCH  36  40
DOCKED: ENDBRANCH  35  36
DOCKED: ENDBRANCH   5  35
DOCKED: BRANCH   4  42
DOCKED: ATOM     42  O   UNL d   1     -16.266 -16.600   7.180 -0.20 +0.06    -0.278 OA
DOCKED: BRANCH  42  43
DOCKED: ATOM     43  P   UNL d   1     -17.679 -17.340   7.193 -0.12 -0.17    +0.473 P 
DOCKED: ATOM     44  O   UNL d   1     -18.262 -17.685   8.520 -0.06 +0.05    -0.228 OA
DOCKED: BRANCH  43  45
DOCKED: ATOM     45  O   UNL d   1     -18.588 -16.372   6.316 -0.01 +0.37    -0.303 OA
DOCKED: ATOM     46  H   UNL d   1     -19.215 -16.876   5.760 -0.40 -0.40    +0.222 HD
DOCKED: ENDBRANCH  43  45
DOCKED: BRANCH  43  47
DOCKED: ATOM     47  O   UNL d   1     -17.456 -18.573   6.194 -0.07 +0.10    -0.303 OA
DOCKED: ATOM     48  H   UNL d   1     -16.547 -18.535   5.832 +0.06 -0.05    +0.222 HD
DOCKED: ENDBRANCH  43  47
DOCKED: ENDBRANCH  42  43
DOCKED: ENDBRANCH   4  42
DOCKED: TORSDOF 24
DOCKED: TER
DOCKED: ENDMDL
________________________________________________________________________________


	BEGINNING GENETIC ALGORITHM DOCKING 51 of 100
Run: 51 Seed: 1889294393 1619141647 [ Run 51 of 100 GA/GALS ]
Beginning LAMARCKIAN GENETIC ALGORITHM (LGA), with a maximum of 25000000 energy evaluations.

Final-Value: -19.316


	FINAL GENETIC ALGORITHM DOCKED STATE
	_______________________________________________


Detailed state:  trans 10.939 10.006 8.093 quatxyzw 0.476657 0.276213 0.038127 -0.833697 center 0.035 0.082 -0.065 ntor 24 109.5795 80.7089 179.3084 7.6894 9.8068 -115.2991 -40.8164 -10.8065 63.1895 12.4823 131.7974 90.9286 -175.6646 80.9137 -44.9615 166.9963 156.5605 -135.3317 18.3098 -32.2086 175.8810 -31.4085 -8.2565 159.9029
State:	 10.939  10.006   8.093   0.863  0.500  0.069 -67.039    109.58   80.71  179.31    7.69    9.81 -115.30  -40.82  -10.81   63.19   12.48  131.80   90.93 -175.66   80.91  -44.96  167.00  156.56 -135.33   18.31  -32.21  175.88  -31.41   -8.26  159.90

DOCKED: MODEL       51
DOCKED: USER    Run = 51
DOCKED: USER    DPF = D:/Protein_go_brrr/autodock/final/mut_Y35F/IHP/dock.dpf
DOCKED: USER  
DOCKED: USER    Estimated Free Energy of Binding    =   +2.82 kcal/mol  [=(1)+(2)+(3)-(4)]
DOCKED: USER    
DOCKED: USER    (1) Final Intermolecular Energy     =   -4.34 kcal/mol
DOCKED: USER        vdW + Hbond + desolv Energy     =   -4.20 kcal/mol
DOCKED: USER        Electrostatic Energy            =   -0.15 kcal/mol
DOCKED: USER    (2) Final Total Internal Energy     =  -14.97 kcal/mol
DOCKED: USER    (3) Torsional Free Energy           =   +7.16 kcal/mol
DOCKED: USER    (4) Unbound System's Energy  [=(2)] =  -14.97 kcal/mol
DOCKED: USER    
DOCKED: USER    
DOCKED: USER    NEWDPF move IHP_ideal_opt.pdbqt
DOCKED: USER    NEWDPF about 0.035000 0.082000 -0.065000
DOCKED: USER    NEWDPF tran0 10.939270 10.006034 8.093256
DOCKED: USER    NEWDPF quaternion0 0.476657 0.276213 0.038127 -0.833697
DOCKED: USER    NEWDPF axisangle0 0.863162 0.500185 0.069043 -67.039161
DOCKED: USER    NEWDPF quat0 0.863162 0.500185 0.069043 -67.039161
DOCKED: USER    NEWDPF dihe0 109.58 80.71 179.31 7.69 9.81 -115.30 -40.82 -10.81 63.19 12.48 131.80 90.93 -175.66 80.91 -44.96 167.00 156.56 -135.33 18.31 -32.21 175.88 -31.41 -8.26 159.90 
DOCKED: USER  keepresnum = 1 
DOCKED: USER  
DOCKED: REMARK  24 active torsions:
DOCKED: REMARK  status: ('A' for Active; 'I' for Inactive)
DOCKED: REMARK    1  A    between atoms: C_1  and  O_7 
DOCKED: REMARK    2  A    between atoms: C_2  and  O_12 
DOCKED: REMARK    3  A    between atoms: C_3  and  O_17 
DOCKED: REMARK    4  A    between atoms: C_4  and  O_22 
DOCKED: REMARK    5  A    between atoms: C_5  and  O_27 
DOCKED: REMARK    6  A    between atoms: C_6  and  O_32 
DOCKED: REMARK    7  A    between atoms: O_7  and  P_8 
DOCKED: REMARK    8  A    between atoms: P_8  and  O_10 
DOCKED: REMARK    9  A    between atoms: P_8  and  O_11 
DOCKED: REMARK   10  A    between atoms: O_12  and  P_13 
DOCKED: REMARK   11  A    between atoms: P_13  and  O_15 
DOCKED: REMARK   12  A    between atoms: P_13  and  O_16 
DOCKED: REMARK   13  A    between atoms: O_17  and  P_18 
DOCKED: REMARK   14  A    between atoms: P_18  and  O_20 
DOCKED: REMARK   15  A    between atoms: P_18  and  O_21 
DOCKED: REMARK   16  A    between atoms: O_22  and  P_23 
DOCKED: REMARK   17  A    between atoms: P_23  and  O_25 
DOCKED: REMARK   18  A    between atoms: P_23  and  O_26 
DOCKED: REMARK   19  A    between atoms: O_27  and  P_28 
DOCKED: REMARK   20  A    between atoms: P_28  and  O_30 
DOCKED: REMARK   21  A    between atoms: P_28  and  O_31 
DOCKED: REMARK   22  A    between atoms: O_32  and  P_33 
DOCKED: REMARK   23  A    between atoms: P_33  and  O_35 
DOCKED: REMARK   24  A    between atoms: P_33  and  O_36 
DOCKED: USER                              x       y       z     vdW  Elec       q    Type
DOCKED: USER                           _______ _______ _______ _____ _____    ______ ____
DOCKED: ROOT
DOCKED: ATOM      1  C   UNL d   1      12.213   9.322   7.148 -0.06 +0.04    +0.194 C 
DOCKED: ATOM      2  C   UNL d   1      10.815   8.763   6.877 -0.13 +0.05    +0.194 C 
DOCKED: ATOM      3  C   UNL d   1      10.042   8.517   8.174 -0.17 +0.08    +0.194 C 
DOCKED: ATOM      4  C   UNL d   1      10.008   9.734   9.094 -0.17 +0.06    +0.194 C 
DOCKED: ATOM      5  C   UNL d   1      11.365  10.393   9.301 -0.12 +0.05    +0.194 C 
DOCKED: ATOM      6  C   UNL d   1      12.165  10.583   8.011 -0.07 +0.03    +0.194 C 
DOCKED: ENDROOT
DOCKED: BRANCH   1   7
DOCKED: ATOM      7  O   UNL d   1      12.800   9.684   5.896 -0.04 -0.04    -0.278 OA
DOCKED: BRANCH   7   8
DOCKED: ATOM      8  P   UNL d   1      13.920   8.728   5.278 -0.06 +0.10    +0.473 P 
DOCKED: ATOM      9  O   UNL d   1      15.219   9.390   4.977 -0.59 -0.09    -0.228 OA
DOCKED: BRANCH   8  10
DOCKED: ATOM     10  O   UNL d   1      14.049   7.545   6.341 -0.03 -0.08    -0.303 OA
DOCKED: ATOM     11  H   UNL d   1      14.130   7.920   7.238 +0.03 +0.06    +0.222 HD
DOCKED: ENDBRANCH   8  10
DOCKED: BRANCH   8  12
DOCKED: ATOM     12  O   UNL d   1      13.214   8.000   4.055 -0.18 -0.04    -0.303 OA
DOCKED: ATOM     13  H   UNL d   1      12.573   8.577   3.581 +0.12 +0.01    +0.222 HD
DOCKED: ENDBRANCH   8  12
DOCKED: ENDBRANCH   7   8
DOCKED: ENDBRANCH   1   7
DOCKED: BRANCH   2  14
DOCKED: ATOM     14  O   UNL d   1      10.083   9.703   6.080 -0.12 -0.04    -0.278 OA
DOCKED: BRANCH  14  15
DOCKED: ATOM     15  P   UNL d   1      10.011   9.406   4.508 -0.16 +0.02    +0.473 P 
DOCKED: ATOM     16  O   UNL d   1       8.679   9.590   3.850 -0.29 -0.01    -0.228 OA
DOCKED: BRANCH  15  17
DOCKED: ATOM     17  O   UNL d   1      11.142  10.338   3.885 -0.17 +0.03    -0.303 OA
DOCKED: ATOM     18  H   UNL d   1      12.019   9.912   3.939 +0.10 -0.00    +0.222 HD
DOCKED: ENDBRANCH  15  17
DOCKED: BRANCH  15  19
DOCKED: ATOM     19  O   UNL d   1      10.662   7.963   4.347 -0.21 -0.03    -0.303 OA
DOCKED: ATOM     20  H   UNL d   1      11.537   7.913   4.775 +0.10 +0.03    +0.222 HD
DOCKED: ENDBRANCH  15  19
DOCKED: ENDBRANCH  14  15
DOCKED: ENDBRANCH   2  14
DOCKED: BRANCH   6  21
DOCKED: ATOM     21  O   UNL d   1      13.506  10.878   8.396 -0.01 -0.04    -0.278 OA
DOCKED: BRANCH  21  22
DOCKED: ATOM     22  P   UNL d   1      14.436   9.718   8.976 +0.01 +0.09    +0.473 P 
DOCKED: ATOM     23  O   UNL d   1      13.788   8.447   9.411 -0.00 -0.07    -0.228 OA
DOCKED: BRANCH  22  24
DOCKED: ATOM     24  O   UNL d   1      15.514   9.555   7.817 -0.00 -0.06    -0.303 OA
DOCKED: ATOM     25  H   UNL d   1      15.032   9.364   6.972 +0.02 +0.05    +0.222 HD
DOCKED: ENDBRANCH  22  24
DOCKED: BRANCH  22  26
DOCKED: ATOM     26  O   UNL d   1      15.272  10.502  10.098 +0.00 -0.05    -0.303 OA
DOCKED: ATOM     27  H   UNL d   1      14.679  10.723  10.845 +0.01 +0.04    +0.222 HD
DOCKED: ENDBRANCH  22  26
DOCKED: ENDBRANCH  21  22
DOCKED: ENDBRANCH   6  21
DOCKED: BRANCH   3  28
DOCKED: ATOM     28  O   UNL d   1       8.686   8.271   7.824 -0.19 -0.10    -0.278 OA
DOCKED: BRANCH  28  29
DOCKED: ATOM     29  P   UNL d   1       8.241   6.840   7.283 -0.21 +0.25    +0.473 P 
DOCKED: ATOM     30  O   UNL d   1       6.923   6.354   7.765 -0.28 -0.10    -0.228 OA
DOCKED: BRANCH  29  31
DOCKED: ATOM     31  O   UNL d   1       8.397   7.075   5.708 -0.09 -0.09    -0.303 OA
DOCKED: ATOM     32  H   UNL d   1       8.870   7.927   5.563 +0.10 +0.05    +0.222 HD
DOCKED: ENDBRANCH  29  31
DOCKED: BRANCH  29  33
DOCKED: ATOM     33  O   UNL d   1       9.510   5.942   7.632 -0.60 -0.42    -0.303 OA
DOCKED: ATOM     34  H   UNL d   1       9.772   6.109   8.571 +0.06 +0.43    +0.222 HD
DOCKED: ENDBRANCH  29  33
DOCKED: ENDBRANCH  28  29
DOCKED: ENDBRANCH   3  28
DOCKED: BRANCH   5  35
DOCKED: ATOM     35  O   UNL d   1      11.090  11.693   9.820 -0.13 -0.07    -0.278 OA
DOCKED: BRANCH  35  36
DOCKED: ATOM     36  P   UNL d   1      11.696  12.145  11.224 -0.08 +0.18    +0.473 P 
DOCKED: ATOM     37  O   UNL d   1      10.989  13.277  11.898 -0.18 -0.17    -0.228 OA
DOCKED: BRANCH  36  38
DOCKED: ATOM     38  O   UNL d   1      11.675  10.779  12.043 -0.04 -0.12    -0.303 OA
DOCKED: ATOM     39  H   UNL d   1      11.208  10.096  11.515 +0.04 +0.08    +0.222 HD
DOCKED: ENDBRANCH  36  38
DOCKED: BRANCH  36  40
DOCKED: ATOM     40  O   UNL d   1      13.234  12.359  10.877 -0.02 -0.07    -0.303 OA
DOCKED: ATOM     41  H   UNL d   1      13.526  11.775  10.142 +0.02 +0.04    +0.222 HD
DOCKED: ENDBRANCH  36  40
DOCKED: ENDBRANCH  35  36
DOCKED: ENDBRANCH   5  35
DOCKED: BRANCH   4  42
DOCKED: ATOM     42  O   UNL d   1       9.564   9.273  10.375 +0.03 -0.11    -0.278 OA
DOCKED: BRANCH  42  43
DOCKED: ATOM     43  P   UNL d   1      10.255   7.986  11.014 -0.06 +0.27    +0.473 P 
DOCKED: ATOM     44  O   UNL d   1       9.663   6.657  10.692 -0.32 -0.28    -0.228 OA
DOCKED: BRANCH  43  45
DOCKED: ATOM     45  O   UNL d   1      11.774   8.147  10.566 -0.03 -0.15    -0.303 OA
DOCKED: ATOM     46  H   UNL d   1      12.156   8.986  10.890 +0.03 +0.08    +0.222 HD
DOCKED: ENDBRANCH  43  45
DOCKED: BRANCH  43  47
DOCKED: ATOM     47  O   UNL d   1      10.335   8.349  12.573 -0.06 -0.13    -0.303 OA
DOCKED: ATOM     48  H   UNL d   1      11.184   8.802  12.755 +0.03 +0.08    +0.222 HD
DOCKED: ENDBRANCH  43  47
DOCKED: ENDBRANCH  42  43
DOCKED: ENDBRANCH   4  42
DOCKED: TORSDOF 24
DOCKED: TER
DOCKED: ENDMDL
________________________________________________________________________________


	BEGINNING GENETIC ALGORITHM DOCKING 52 of 100
Run: 52 Seed: 1151192874 778519209 [ Run 52 of 100 GA/GALS ]
Beginning LAMARCKIAN GENETIC ALGORITHM (LGA), with a maximum of 25000000 energy evaluations.

Final-Value: -17.822


	FINAL GENETIC ALGORITHM DOCKED STATE
	_______________________________________________


Detailed state:  trans -16.483 -9.570 12.368 quatxyzw -0.471446 0.458104 0.446782 0.606849 center 0.035 0.082 -0.065 ntor 24 -108.9671 166.8345 120.6424 137.2355 -81.6453 -172.7793 -123.6247 80.4652 18.5949 -53.7632 166.1546 142.9196 30.4928 82.3539 -178.9587 60.3435 -131.0863 100.6937 -131.2372 -10.3694 -178.3387 162.9298 146.6857 -42.5234
State:	-16.483  -9.570  12.368  -0.593  0.576  0.562 105.276   -108.97  166.83  120.64  137.24  -81.65 -172.78 -123.62   80.47   18.59  -53.76  166.15  142.92   30.49   82.35 -178.96   60.34 -131.09  100.69 -131.24  -10.37 -178.34  162.93  146.69  -42.52

DOCKED: MODEL       52
DOCKED: USER    Run = 52
DOCKED: USER    DPF = D:/Protein_go_brrr/autodock/final/mut_Y35F/IHP/dock.dpf
DOCKED: USER  
DOCKED: USER    Estimated Free Energy of Binding    =   +1.48 kcal/mol  [=(1)+(2)+(3)-(4)]
DOCKED: USER    
DOCKED: USER    (1) Final Intermolecular Energy     =   -5.68 kcal/mol
DOCKED: USER        vdW + Hbond + desolv Energy     =   -5.06 kcal/mol
DOCKED: USER        Electrostatic Energy            =   -0.62 kcal/mol
DOCKED: USER    (2) Final Total Internal Energy     =  -12.14 kcal/mol
DOCKED: USER    (3) Torsional Free Energy           =   +7.16 kcal/mol
DOCKED: USER    (4) Unbound System's Energy  [=(2)] =  -12.14 kcal/mol
DOCKED: USER    
DOCKED: USER    
DOCKED: USER    NEWDPF move IHP_ideal_opt.pdbqt
DOCKED: USER    NEWDPF about 0.035000 0.082000 -0.065000
DOCKED: USER    NEWDPF tran0 -16.483348 -9.570049 12.367741
DOCKED: USER    NEWDPF quaternion0 -0.471446 0.458104 0.446782 0.606849
DOCKED: USER    NEWDPF axisangle0 -0.593150 0.576363 0.562120 105.275989
DOCKED: USER    NEWDPF quat0 -0.593150 0.576363 0.562120 105.275989
DOCKED: USER    NEWDPF dihe0 -108.97 166.83 120.64 137.24 -81.65 -172.78 -123.62 80.47 18.59 -53.76 166.15 142.92 30.49 82.35 -178.96 60.34 -131.09 100.69 -131.24 -10.37 -178.34 162.93 146.69 -42.52 
DOCKED: USER  keepresnum = 1 
DOCKED: USER  
DOCKED: REMARK  24 active torsions:
DOCKED: REMARK  status: ('A' for Active; 'I' for Inactive)
DOCKED: REMARK    1  A    between atoms: C_1  and  O_7 
DOCKED: REMARK    2  A    between atoms: C_2  and  O_12 
DOCKED: REMARK    3  A    between atoms: C_3  and  O_17 
DOCKED: REMARK    4  A    between atoms: C_4  and  O_22 
DOCKED: REMARK    5  A    between atoms: C_5  and  O_27 
DOCKED: REMARK    6  A    between atoms: C_6  and  O_32 
DOCKED: REMARK    7  A    between atoms: O_7  and  P_8 
DOCKED: REMARK    8  A    between atoms: P_8  and  O_10 
DOCKED: REMARK    9  A    between atoms: P_8  and  O_11 
DOCKED: REMARK   10  A    between atoms: O_12  and  P_13 
DOCKED: REMARK   11  A    between atoms: P_13  and  O_15 
DOCKED: REMARK   12  A    between atoms: P_13  and  O_16 
DOCKED: REMARK   13  A    between atoms: O_17  and  P_18 
DOCKED: REMARK   14  A    between atoms: P_18  and  O_20 
DOCKED: REMARK   15  A    between atoms: P_18  and  O_21 
DOCKED: REMARK   16  A    between atoms: O_22  and  P_23 
DOCKED: REMARK   17  A    between atoms: P_23  and  O_25 
DOCKED: REMARK   18  A    between atoms: P_23  and  O_26 
DOCKED: REMARK   19  A    between atoms: O_27  and  P_28 
DOCKED: REMARK   20  A    between atoms: P_28  and  O_30 
DOCKED: REMARK   21  A    between atoms: P_28  and  O_31 
DOCKED: REMARK   22  A    between atoms: O_32  and  P_33 
DOCKED: REMARK   23  A    between atoms: P_33  and  O_35 
DOCKED: REMARK   24  A    between atoms: P_33  and  O_36 
DOCKED: USER                              x       y       z     vdW  Elec       q    Type
DOCKED: USER                           _______ _______ _______ _____ _____    ______ ____
DOCKED: ROOT
DOCKED: ATOM      1  C   UNL d   1     -17.127 -11.058  11.772 -0.07 +0.01    +0.194 C 
DOCKED: ATOM      2  C   UNL d   1     -17.082  -9.908  10.765 -0.12 +0.01    +0.194 C 
DOCKED: ATOM      3  C   UNL d   1     -17.538  -8.588  11.391 -0.04 -0.01    +0.194 C 
DOCKED: ATOM      4  C   UNL d   1     -16.803  -8.251  12.686 -0.03 -0.02    +0.194 C 
DOCKED: ATOM      5  C   UNL d   1     -16.725  -9.408  13.674 -0.01 -0.00    +0.194 C 
DOCKED: ATOM      6  C   UNL d   1     -16.328 -10.741  13.037 -0.03 +0.03    +0.194 C 
DOCKED: ENDROOT
DOCKED: BRANCH   1   7
DOCKED: ATOM      7  O   UNL d   1     -16.528 -12.206  11.166 -0.10 -0.03    -0.278 OA
DOCKED: BRANCH   7   8
DOCKED: ATOM      8  P   UNL d   1     -15.073 -12.649  11.653 -0.07 +0.12    +0.473 P 
DOCKED: ATOM      9  O   UNL d   1     -15.044 -13.463  12.899 -0.02 -0.03    -0.228 OA
DOCKED: BRANCH   8  10
DOCKED: ATOM     10  O   UNL d   1     -14.457 -13.408  10.393 -0.14 -0.07    -0.303 OA
DOCKED: ATOM     11  H   UNL d   1     -13.944 -12.780   9.851 +0.08 +0.07    +0.222 HD
DOCKED: ENDBRANCH   8  10
DOCKED: BRANCH   8  12
DOCKED: ATOM     12  O   UNL d   1     -14.221 -11.308  11.682 -0.50 -0.26    -0.303 OA
DOCKED: ATOM     13  H   UNL d   1     -13.844 -11.109  12.568 +0.03 +0.25    +0.222 HD
DOCKED: ENDBRANCH   8  12
DOCKED: ENDBRANCH   7   8
DOCKED: ENDBRANCH   1   7
DOCKED: BRANCH   2  14
DOCKED: ATOM     14  O   UNL d   1     -15.736  -9.750  10.297 -0.16 -0.06    -0.278 OA
DOCKED: BRANCH  14  15
DOCKED: ATOM     15  P   UNL d   1     -15.505  -9.898   8.720 -0.26 +0.03    +0.473 P 
DOCKED: ATOM     16  O   UNL d   1     -14.578  -8.912   8.081 -0.44 -0.02    -0.228 OA
DOCKED: BRANCH  15  17
DOCKED: ATOM     17  O   UNL d   1     -15.023 -11.405   8.538 -0.26 -0.06    -0.303 OA
DOCKED: ATOM     18  H   UNL d   1     -15.341 -11.967   9.271 +0.09 +0.05    +0.222 HD
DOCKED: ENDBRANCH  15  17
DOCKED: BRANCH  15  19
DOCKED: ATOM     19  O   UNL d   1     -16.972  -9.956   8.107 -0.12 +0.07    -0.303 OA
DOCKED: ATOM     20  H   UNL d   1     -17.380  -9.071   8.066 -0.45 -0.10    +0.222 HD
DOCKED: ENDBRANCH  15  19
DOCKED: ENDBRANCH  14  15
DOCKED: ENDBRANCH   2  14
DOCKED: BRANCH   6  21
DOCKED: ATOM     21  O   UNL d   1     -16.630 -11.759  13.989 -0.00 -0.02    -0.278 OA
DOCKED: BRANCH  21  22
DOCKED: ATOM     22  P   UNL d   1     -18.133 -12.266  14.156 +0.00 +0.00    +0.473 P 
DOCKED: ATOM     23  O   UNL d   1     -18.574 -12.734  15.502 -0.00 +0.00    -0.228 OA
DOCKED: BRANCH  22  24
DOCKED: ATOM     24  O   UNL d   1     -18.959 -11.036  13.574 -0.00 +0.00    -0.303 OA
DOCKED: ATOM     25  H   UNL d   1     -19.817 -10.980  14.066 +0.01 -0.00    +0.222 HD
DOCKED: ENDBRANCH  22  24
DOCKED: BRANCH  22  26
DOCKED: ATOM     26  O   UNL d   1     -18.250 -13.335  12.967 -0.01 -0.00    -0.303 OA
DOCKED: ATOM     27  H   UNL d   1     -17.355 -13.533  12.623 +0.02 +0.01    +0.222 HD
DOCKED: ENDBRANCH  22  26
DOCKED: ENDBRANCH  21  22
DOCKED: ENDBRANCH   6  21
DOCKED: BRANCH   3  28
DOCKED: ATOM     28  O   UNL d   1     -17.202  -7.546  10.484 -0.07 +0.04    -0.278 OA
DOCKED: BRANCH  28  29
DOCKED: ATOM     29  P   UNL d   1     -15.756  -6.879  10.525 -0.10 -0.16    +0.473 P 
DOCKED: ATOM     30  O   UNL d   1     -14.639  -7.792  10.878 -0.33 -0.04    -0.228 OA
DOCKED: BRANCH  29  31
DOCKED: ATOM     31  O   UNL d   1     -15.716  -6.210   9.071 -0.38 +0.08    -0.303 OA
DOCKED: ATOM     32  H   UNL d   1     -15.620  -6.925   8.400 -0.24 -0.06    +0.222 HD
DOCKED: ENDBRANCH  29  31
DOCKED: BRANCH  29  33
DOCKED: ATOM     33  O   UNL d   1     -15.993  -5.627  11.481 -0.07 +0.27    -0.303 OA
DOCKED: ATOM     34  H   UNL d   1     -15.214  -5.530  12.081 -0.33 -0.50    +0.222 HD
DOCKED: ENDBRANCH  29  33
DOCKED: ENDBRANCH  28  29
DOCKED: ENDBRANCH   3  28
DOCKED: BRANCH   5  35
DOCKED: ATOM     35  O   UNL d   1     -15.694  -9.060  14.596 -0.02 +0.01    -0.278 OA
DOCKED: BRANCH  35  36
DOCKED: ATOM     36  P   UNL d   1     -14.165  -9.333  14.234 -0.06 +0.12    +0.473 P 
DOCKED: ATOM     37  O   UNL d   1     -13.654 -10.696  14.577 -0.08 -0.09    -0.228 OA
DOCKED: BRANCH  36  38
DOCKED: ATOM     38  O   UNL d   1     -14.133  -8.994  12.678 -0.23 -0.28    -0.303 OA
DOCKED: ATOM     39  H   UNL d   1     -14.850  -9.490  12.227 +0.04 +0.14    +0.222 HD
DOCKED: ENDBRANCH  36  38
DOCKED: BRANCH  36  40
DOCKED: ATOM     40  O   UNL d   1     -13.429  -8.095  14.910 -0.03 +0.15    -0.303 OA
DOCKED: ATOM     41  H   UNL d   1     -13.282  -7.364  14.269 -0.43 -0.41    +0.222 HD
DOCKED: ENDBRANCH  36  40
DOCKED: ENDBRANCH  35  36
DOCKED: ENDBRANCH   5  35
DOCKED: BRANCH   4  42
DOCKED: ATOM     42  O   UNL d   1     -17.543  -7.203  13.322 -0.01 +0.06    -0.278 OA
DOCKED: BRANCH  42  43
DOCKED: ATOM     43  P   UNL d   1     -16.779  -6.205  14.303 -0.04 -0.18    +0.473 P 
DOCKED: ATOM     44  O   UNL d   1     -17.248  -4.792  14.346 -0.06 +0.07    -0.228 OA
DOCKED: BRANCH  43  45
DOCKED: ATOM     45  O   UNL d   1     -16.858  -6.960  15.701 -0.01 +0.06    -0.303 OA
DOCKED: ATOM     46  H   UNL d   1     -16.066  -7.514  15.854 +0.02 -0.05    +0.222 HD
DOCKED: ENDBRANCH  43  45
DOCKED: BRANCH  43  47
DOCKED: ATOM     47  O   UNL d   1     -15.239  -6.410  13.908 +0.01 +0.33    -0.303 OA
DOCKED: ATOM     48  H   UNL d   1     -15.079  -7.357  13.715 -0.01 -0.15    +0.222 HD
DOCKED: ENDBRANCH  43  47
DOCKED: ENDBRANCH  42  43
DOCKED: ENDBRANCH   4  42
DOCKED: TORSDOF 24
DOCKED: TER
DOCKED: ENDMDL
________________________________________________________________________________


	BEGINNING GENETIC ALGORITHM DOCKING 53 of 100
Run: 53 Seed: 1299458343 1686125236 [ Run 53 of 100 GA/GALS ]
Beginning LAMARCKIAN GENETIC ALGORITHM (LGA), with a maximum of 25000000 energy evaluations.

Final-Value: -17.498


	FINAL GENETIC ALGORITHM DOCKED STATE
	_______________________________________________


Detailed state:  trans -14.664 -18.279 4.936 quatxyzw 0.610156 -0.384667 -0.032375 -0.691876 center 0.035 0.082 -0.065 ntor 24 -0.2732 104.4943 41.3686 80.2172 26.4017 -94.3651 22.2210 -82.3166 51.9555 4.1309 -30.3691 157.2978 -15.3916 -82.3040 -41.3356 85.1637 171.4035 -65.6580 -11.5556 -6.9280 150.6958 -17.7908 2.1662 164.9405
State:	-14.664 -18.279   4.936   0.845 -0.533 -0.045 -92.442     -0.27  104.49   41.37   80.22   26.40  -94.37   22.22  -82.32   51.96    4.13  -30.37  157.30  -15.39  -82.30  -41.34   85.16  171.40  -65.66  -11.56   -6.93  150.70  -17.79    2.17  164.94

DOCKED: MODEL       53
DOCKED: USER    Run = 53
DOCKED: USER    DPF = D:/Protein_go_brrr/autodock/final/mut_Y35F/IHP/dock.dpf
DOCKED: USER  
DOCKED: USER    Estimated Free Energy of Binding    =   +3.14 kcal/mol  [=(1)+(2)+(3)-(4)]
DOCKED: USER    
DOCKED: USER    (1) Final Intermolecular Energy     =   -4.02 kcal/mol
DOCKED: USER        vdW + Hbond + desolv Energy     =   -3.67 kcal/mol
DOCKED: USER        Electrostatic Energy            =   -0.35 kcal/mol
DOCKED: USER    (2) Final Total Internal Energy     =  -13.48 kcal/mol
DOCKED: USER    (3) Torsional Free Energy           =   +7.16 kcal/mol
DOCKED: USER    (4) Unbound System's Energy  [=(2)] =  -13.48 kcal/mol
DOCKED: USER    
DOCKED: USER    
DOCKED: USER    NEWDPF move IHP_ideal_opt.pdbqt
DOCKED: USER    NEWDPF about 0.035000 0.082000 -0.065000
DOCKED: USER    NEWDPF tran0 -14.664169 -18.279475 4.936428
DOCKED: USER    NEWDPF quaternion0 0.610156 -0.384667 -0.032375 -0.691876
DOCKED: USER    NEWDPF axisangle0 0.845073 -0.532768 -0.044840 -92.442424
DOCKED: USER    NEWDPF quat0 0.845073 -0.532768 -0.044840 -92.442424
DOCKED: USER    NEWDPF dihe0 -0.27 104.49 41.37 80.22 26.40 -94.37 22.22 -82.32 51.96 4.13 -30.37 157.30 -15.39 -82.30 -41.34 85.16 171.40 -65.66 -11.56 -6.93 150.70 -17.79 2.17 164.94 
DOCKED: USER  keepresnum = 1 
DOCKED: USER  
DOCKED: REMARK  24 active torsions:
DOCKED: REMARK  status: ('A' for Active; 'I' for Inactive)
DOCKED: REMARK    1  A    between atoms: C_1  and  O_7 
DOCKED: REMARK    2  A    between atoms: C_2  and  O_12 
DOCKED: REMARK    3  A    between atoms: C_3  and  O_17 
DOCKED: REMARK    4  A    between atoms: C_4  and  O_22 
DOCKED: REMARK    5  A    between atoms: C_5  and  O_27 
DOCKED: REMARK    6  A    between atoms: C_6  and  O_32 
DOCKED: REMARK    7  A    between atoms: O_7  and  P_8 
DOCKED: REMARK    8  A    between atoms: P_8  and  O_10 
DOCKED: REMARK    9  A    between atoms: P_8  and  O_11 
DOCKED: REMARK   10  A    between atoms: O_12  and  P_13 
DOCKED: REMARK   11  A    between atoms: P_13  and  O_15 
DOCKED: REMARK   12  A    between atoms: P_13  and  O_16 
DOCKED: REMARK   13  A    between atoms: O_17  and  P_18 
DOCKED: REMARK   14  A    between atoms: P_18  and  O_20 
DOCKED: REMARK   15  A    between atoms: P_18  and  O_21 
DOCKED: REMARK   16  A    between atoms: O_22  and  P_23 
DOCKED: REMARK   17  A    between atoms: P_23  and  O_25 
DOCKED: REMARK   18  A    between atoms: P_23  and  O_26 
DOCKED: REMARK   19  A    between atoms: O_27  and  P_28 
DOCKED: REMARK   20  A    between atoms: P_28  and  O_30 
DOCKED: REMARK   21  A    between atoms: P_28  and  O_31 
DOCKED: REMARK   22  A    between atoms: O_32  and  P_33 
DOCKED: REMARK   23  A    between atoms: P_33  and  O_35 
DOCKED: REMARK   24  A    between atoms: P_33  and  O_36 
DOCKED: USER                              x       y       z     vdW  Elec       q    Type
DOCKED: USER                           _______ _______ _______ _____ _____    ______ ____
DOCKED: ROOT
DOCKED: ATOM      1  C   UNL d   1     -13.860 -19.797   4.750 -0.07 +0.01    +0.194 C 
DOCKED: ATOM      2  C   UNL d   1     -14.184 -19.056   3.451 -0.11 +0.00    +0.194 C 
DOCKED: ATOM      3  C   UNL d   1     -15.592 -18.460   3.475 -0.16 -0.02    +0.194 C 
DOCKED: ATOM      4  C   UNL d   1     -15.862 -17.604   4.710 -0.26 -0.04    +0.194 C 
DOCKED: ATOM      5  C   UNL d   1     -15.448 -18.259   6.021 -0.15 -0.02    +0.194 C 
DOCKED: ATOM      6  C   UNL d   1     -14.063 -18.909   5.978 -0.07 +0.01    +0.194 C 
DOCKED: ENDROOT
DOCKED: BRANCH   1   7
DOCKED: ATOM      7  O   UNL d   1     -12.480 -20.171   4.718 -0.24 -0.02    -0.278 OA
DOCKED: BRANCH   7   8
DOCKED: ATOM      8  P   UNL d   1     -12.087 -21.659   5.145 -0.01 -0.00    +0.473 P 
DOCKED: ATOM      9  O   UNL d   1     -13.062 -22.709   4.743 -0.00 +0.00    -0.228 OA
DOCKED: BRANCH   8  10
DOCKED: ATOM     10  O   UNL d   1     -10.638 -21.873   4.515 -0.01 +0.00    -0.303 OA
DOCKED: ATOM     11  H   UNL d   1     -10.461 -22.827   4.417 +0.01 -0.00    +0.222 HD
DOCKED: ENDBRANCH   8  10
DOCKED: BRANCH   8  12
DOCKED: ATOM     12  O   UNL d   1     -11.765 -21.571   6.699 -0.01 +0.01    -0.303 OA
DOCKED: ATOM     13  H   UNL d   1     -12.525 -21.248   7.233 +0.01 -0.00    +0.222 HD
DOCKED: ENDBRANCH   8  12
DOCKED: ENDBRANCH   7   8
DOCKED: ENDBRANCH   1   7
DOCKED: BRANCH   2  14
DOCKED: ATOM     14  O   UNL d   1     -13.240 -17.992   3.273 -0.14 -0.02    -0.278 OA
DOCKED: BRANCH  14  15
DOCKED: ATOM     15  P   UNL d   1     -12.426 -17.982   1.894 -0.16 -0.02    +0.473 P 
DOCKED: ATOM     16  O   UNL d   1     -12.228 -19.303   1.220 -0.05 +0.01    -0.228 OA
DOCKED: BRANCH  15  17
DOCKED: ATOM     17  O   UNL d   1     -13.214 -16.937   0.986 -0.22 +0.03    -0.303 OA
DOCKED: ATOM     18  H   UNL d   1     -14.160 -17.170   0.923 +0.07 -0.02    +0.222 HD
DOCKED: ENDBRANCH  15  17
DOCKED: BRANCH  15  19
DOCKED: ATOM     19  O   UNL d   1     -11.095 -17.175   2.226 -0.24 +0.04    -0.303 OA
DOCKED: ATOM     20  H   UNL d   1     -10.913 -17.158   3.184 -0.47 -0.09    +0.222 HD
DOCKED: ENDBRANCH  15  19
DOCKED: ENDBRANCH  14  15
DOCKED: ENDBRANCH   2  14
DOCKED: BRANCH   6  21
DOCKED: ATOM     21  O   UNL d   1     -13.968 -19.752   7.124 -0.04 +0.00    -0.278 OA
DOCKED: BRANCH  21  22
DOCKED: ATOM     22  P   UNL d   1     -15.154 -20.764   7.463 +0.01 -0.02    +0.473 P 
DOCKED: ATOM     23  O   UNL d   1     -16.438 -20.621   6.718 -0.01 +0.02    -0.228 OA
DOCKED: BRANCH  22  24
DOCKED: ATOM     24  O   UNL d   1     -14.437 -22.175   7.293 +0.00 +0.01    -0.303 OA
DOCKED: ATOM     25  H   UNL d   1     -13.837 -22.122   6.506 +0.00 -0.01    +0.222 HD
DOCKED: ENDBRANCH  22  24
DOCKED: BRANCH  22  26
DOCKED: ATOM     26  O   UNL d   1     -15.249 -20.631   9.058 -0.00 +0.01    -0.303 OA
DOCKED: ATOM     27  H   UNL d   1     -15.899 -19.935   9.285 +0.01 -0.01    +0.222 HD
DOCKED: ENDBRANCH  22  26
DOCKED: ENDBRANCH  21  22
DOCKED: ENDBRANCH   6  21
DOCKED: BRANCH   3  28
DOCKED: ATOM     28  O   UNL d   1     -15.700 -17.572   2.370 -0.14 +0.03    -0.278 OA
DOCKED: BRANCH  28  29
DOCKED: ATOM     29  P   UNL d   1     -16.276 -18.088   0.977 -0.03 -0.05    +0.473 P 
DOCKED: ATOM     30  O   UNL d   1     -17.656 -18.636   1.017 -0.08 +0.04    -0.228 OA
DOCKED: BRANCH  29  31
DOCKED: ATOM     31  O   UNL d   1     -16.037 -16.786   0.077 -0.10 +0.02    -0.303 OA
DOCKED: ATOM     32  H   UNL d   1     -15.075 -16.712  -0.118 +0.07 -0.01    +0.222 HD
DOCKED: ENDBRANCH  29  31
DOCKED: BRANCH  29  33
DOCKED: ATOM     33  O   UNL d   1     -15.125 -19.072   0.484 -0.02 +0.02    -0.303 OA
DOCKED: ATOM     34  H   UNL d   1     -14.277 -18.819   0.923 +0.05 -0.01    +0.222 HD
DOCKED: ENDBRANCH  29  33
DOCKED: ENDBRANCH  28  29
DOCKED: ENDBRANCH   3  28
DOCKED: BRANCH   5  35
DOCKED: ATOM     35  O   UNL d   1     -15.386 -17.203   6.978 -0.18 +0.04    -0.278 OA
DOCKED: BRANCH  35  36
DOCKED: ATOM     36  P   UNL d   1     -16.071 -17.373   8.409 -0.06 -0.05    +0.473 P 
DOCKED: ATOM     37  O   UNL d   1     -16.690 -16.136   8.978 -0.09 +0.02    -0.228 OA
DOCKED: BRANCH  36  38
DOCKED: ATOM     38  O   UNL d   1     -17.101 -18.556   8.139 -0.02 +0.05    -0.303 OA
DOCKED: ATOM     39  H   UNL d   1     -17.244 -18.644   7.172 +0.05 -0.05    +0.222 HD
DOCKED: ENDBRANCH  36  38
DOCKED: BRANCH  36  40
DOCKED: ATOM     40  O   UNL d   1     -14.915 -18.059   9.260 -0.02 +0.01    -0.303 OA
DOCKED: ATOM     41  H   UNL d   1     -14.405 -18.707   8.725 +0.03 -0.01    +0.222 HD
DOCKED: ENDBRANCH  36  40
DOCKED: ENDBRANCH  35  36
DOCKED: ENDBRANCH   5  35
DOCKED: BRANCH   4  42
DOCKED: ATOM     42  O   UNL d   1     -17.278 -17.399   4.771 -0.16 +0.18    -0.278 OA
DOCKED: BRANCH  42  43
DOCKED: ATOM     43  P   UNL d   1     -18.243 -18.669   4.741 -0.06 -0.24    +0.473 P 
DOCKED: ATOM     44  O   UNL d   1     -17.686 -19.942   4.205 -0.04 +0.05    -0.228 OA
DOCKED: BRANCH  43  45
DOCKED: ATOM     45  O   UNL d   1     -18.745 -18.761   6.248 -0.05 +0.12    -0.303 OA
DOCKED: ATOM     46  H   UNL d   1     -18.289 -19.477   6.734 +0.03 -0.05    +0.222 HD
DOCKED: ENDBRANCH  43  45
DOCKED: BRANCH  43  47
DOCKED: ATOM     47  O   UNL d   1     -19.551 -18.118   3.995 -0.04 +0.30    -0.303 OA
DOCKED: ATOM     48  H   UNL d   1     -19.594 -17.144   4.097 -0.49 -0.59    +0.222 HD
DOCKED: ENDBRANCH  43  47
DOCKED: ENDBRANCH  42  43
DOCKED: ENDBRANCH   4  42
DOCKED: TORSDOF 24
DOCKED: TER
DOCKED: ENDMDL
________________________________________________________________________________


	BEGINNING GENETIC ALGORITHM DOCKING 54 of 100
Run: 54 Seed: 1223087650 27964904 [ Run 54 of 100 GA/GALS ]
Beginning LAMARCKIAN GENETIC ALGORITHM (LGA), with a maximum of 25000000 energy evaluations.

Final-Value: -18.593


	FINAL GENETIC ALGORITHM DOCKED STATE
	_______________________________________________


Detailed state:  trans -8.018 -10.614 -14.908 quatxyzw -0.047597 -0.556823 -0.432820 0.707355 center 0.035 0.082 -0.065 ntor 24 180.0000 -27.0301 107.1431 111.7855 87.4847 -124.9022 80.5777 -128.4894 -13.1100 -9.1401 1.7160 -166.1104 -119.7097 98.1744 107.2437 -115.2008 -145.9117 -40.0916 41.3558 -5.8486 7.3803 19.4408 -19.5557 -175.4386
State:	 -8.018 -10.614 -14.908  -0.067 -0.788 -0.612 89.960    180.00  -27.03  107.14  111.79   87.48 -124.90   80.58 -128.49  -13.11   -9.14    1.72 -166.11 -119.71   98.17  107.24 -115.20 -145.91  -40.09   41.36   -5.85    7.38   19.44  -19.56 -175.44

DOCKED: MODEL       54
DOCKED: USER    Run = 54
DOCKED: USER    DPF = D:/Protein_go_brrr/autodock/final/mut_Y35F/IHP/dock.dpf
DOCKED: USER  
DOCKED: USER    Estimated Free Energy of Binding    =   +3.10 kcal/mol  [=(1)+(2)+(3)-(4)]
DOCKED: USER    
DOCKED: USER    (1) Final Intermolecular Energy     =   -4.06 kcal/mol
DOCKED: USER        vdW + Hbond + desolv Energy     =   -3.83 kcal/mol
DOCKED: USER        Electrostatic Energy            =   -0.23 kcal/mol
DOCKED: USER    (2) Final Total Internal Energy     =  -14.53 kcal/mol
DOCKED: USER    (3) Torsional Free Energy           =   +7.16 kcal/mol
DOCKED: USER    (4) Unbound System's Energy  [=(2)] =  -14.53 kcal/mol
DOCKED: USER    
DOCKED: USER    
DOCKED: USER    NEWDPF move IHP_ideal_opt.pdbqt
DOCKED: USER    NEWDPF about 0.035000 0.082000 -0.065000
DOCKED: USER    NEWDPF tran0 -8.017693 -10.613793 -14.907911
DOCKED: USER    NEWDPF quaternion0 -0.047597 -0.556823 -0.432820 0.707355
DOCKED: USER    NEWDPF axisangle0 -0.067336 -0.787742 -0.612314 89.959845
DOCKED: USER    NEWDPF quat0 -0.067336 -0.787742 -0.612314 89.959845
DOCKED: USER    NEWDPF dihe0 180.00 -27.03 107.14 111.79 87.48 -124.90 80.58 -128.49 -13.11 -9.14 1.72 -166.11 -119.71 98.17 107.24 -115.20 -145.91 -40.09 41.36 -5.85 7.38 19.44 -19.56 -175.44 
DOCKED: USER  keepresnum = 1 
DOCKED: USER  
DOCKED: REMARK  24 active torsions:
DOCKED: REMARK  status: ('A' for Active; 'I' for Inactive)
DOCKED: REMARK    1  A    between atoms: C_1  and  O_7 
DOCKED: REMARK    2  A    between atoms: C_2  and  O_12 
DOCKED: REMARK    3  A    between atoms: C_3  and  O_17 
DOCKED: REMARK    4  A    between atoms: C_4  and  O_22 
DOCKED: REMARK    5  A    between atoms: C_5  and  O_27 
DOCKED: REMARK    6  A    between atoms: C_6  and  O_32 
DOCKED: REMARK    7  A    between atoms: O_7  and  P_8 
DOCKED: REMARK    8  A    between atoms: P_8  and  O_10 
DOCKED: REMARK    9  A    between atoms: P_8  and  O_11 
DOCKED: REMARK   10  A    between atoms: O_12  and  P_13 
DOCKED: REMARK   11  A    between atoms: P_13  and  O_15 
DOCKED: REMARK   12  A    between atoms: P_13  and  O_16 
DOCKED: REMARK   13  A    between atoms: O_17  and  P_18 
DOCKED: REMARK   14  A    between atoms: P_18  and  O_20 
DOCKED: REMARK   15  A    between atoms: P_18  and  O_21 
DOCKED: REMARK   16  A    between atoms: O_22  and  P_23 
DOCKED: REMARK   17  A    between atoms: P_23  and  O_25 
DOCKED: REMARK   18  A    between atoms: P_23  and  O_26 
DOCKED: REMARK   19  A    between atoms: O_27  and  P_28 
DOCKED: REMARK   20  A    between atoms: P_28  and  O_30 
DOCKED: REMARK   21  A    between atoms: P_28  and  O_31 
DOCKED: REMARK   22  A    between atoms: O_32  and  P_33 
DOCKED: REMARK   23  A    between atoms: P_33  and  O_35 
DOCKED: REMARK   24  A    between atoms: P_33  and  O_36 
DOCKED: USER                              x       y       z     vdW  Elec       q    Type
DOCKED: USER                           _______ _______ _______ _____ _____    ______ ____
DOCKED: ROOT
DOCKED: ATOM      1  C   UNL d   1      -6.859 -10.003 -16.034 -0.01 -0.00    +0.194 C 
DOCKED: ATOM      2  C   UNL d   1      -6.722 -11.486 -15.683 -0.01 +0.00    +0.194 C 
DOCKED: ATOM      3  C   UNL d   1      -6.897 -11.731 -14.183 -0.05 -0.01    +0.194 C 
DOCKED: ATOM      4  C   UNL d   1      -8.178 -11.120 -13.619 -0.09 -0.01    +0.194 C 
DOCKED: ATOM      5  C   UNL d   1      -8.414  -9.675 -14.040 -0.06 -0.01    +0.194 C 
DOCKED: ATOM      6  C   UNL d   1      -8.178  -9.417 -15.529 -0.01 -0.00    +0.194 C 
DOCKED: ENDROOT
DOCKED: BRANCH   1   7
DOCKED: ATOM      7  O   UNL d   1      -6.856  -9.881 -17.459 +0.00 -0.00    -0.278 OA
DOCKED: BRANCH   7   8
DOCKED: ATOM      8  P   UNL d   1      -5.451  -9.897 -18.219 +0.00 +0.00    +0.473 P 
DOCKED: ATOM      9  O   UNL d   1      -4.585  -8.713 -17.971 +0.00 -0.00    -0.228 OA
DOCKED: BRANCH   8  10
DOCKED: ATOM     10  O   UNL d   1      -4.780 -11.271 -17.762 -0.00 -0.01    -0.303 OA
DOCKED: ATOM     11  H   UNL d   1      -5.473 -11.888 -17.459 +0.00 +0.01    +0.222 HD
DOCKED: ENDBRANCH   8  10
DOCKED: BRANCH   8  12
DOCKED: ATOM     12  O   UNL d   1      -5.807 -10.191 -19.739 +0.00 -0.00    -0.303 OA
DOCKED: ATOM     13  H   UNL d   1      -6.093 -11.119 -19.896 +0.00 +0.00    +0.222 HD
DOCKED: ENDBRANCH   8  12
DOCKED: ENDBRANCH   7   8
DOCKED: ENDBRANCH   1   7
DOCKED: BRANCH   2  14
DOCKED: ATOM     14  O   UNL d   1      -7.725 -12.228 -16.387 -0.00 -0.01    -0.278 OA
DOCKED: BRANCH  14  15
DOCKED: ATOM     15  P   UNL d   1      -7.213 -13.450 -17.286 +0.00 +0.03    +0.473 P 
DOCKED: ATOM     16  O   UNL d   1      -8.184 -14.564 -17.521 -0.01 -0.02    -0.228 OA
DOCKED: BRANCH  15  17
DOCKED: ATOM     17  O   UNL d   1      -6.726 -12.760 -18.637 -0.00 -0.01    -0.303 OA
DOCKED: ATOM     18  H   UNL d   1      -6.679 -11.790 -18.539 +0.00 +0.01    +0.222 HD
DOCKED: ENDBRANCH  15  17
DOCKED: BRANCH  15  19
DOCKED: ATOM     19  O   UNL d   1      -5.829 -13.874 -16.626 -0.01 -0.03    -0.303 OA
DOCKED: ATOM     20  H   UNL d   1      -5.918 -14.028 -15.668 +0.04 +0.02    +0.222 HD
DOCKED: ENDBRANCH  15  19
DOCKED: ENDBRANCH  14  15
DOCKED: ENDBRANCH   2  14
DOCKED: BRANCH   6  21
DOCKED: ATOM     21  O   UNL d   1      -8.098  -8.004 -15.695 -0.00 +0.00    -0.278 OA
DOCKED: BRANCH  21  22
DOCKED: ATOM     22  P   UNL d   1      -9.400  -7.181 -16.112 +0.00 -0.00    +0.473 P 
DOCKED: ATOM     23  O   UNL d   1      -9.665  -5.885 -15.423 -0.01 +0.00    -0.228 OA
DOCKED: BRANCH  22  24
DOCKED: ATOM     24  O   UNL d   1      -9.226  -7.074 -17.690 +0.00 +0.00    -0.303 OA
DOCKED: ATOM     25  H   UNL d   1      -8.614  -7.797 -17.983 +0.00 +0.00    +0.222 HD
DOCKED: ENDBRANCH  22  24
DOCKED: BRANCH  22  26
DOCKED: ATOM     26  O   UNL d   1     -10.545  -8.295 -15.980 -0.00 +0.00    -0.303 OA
DOCKED: ATOM     27  H   UNL d   1     -10.583  -8.609 -15.054 +0.02 -0.00    +0.222 HD
DOCKED: ENDBRANCH  22  26
DOCKED: ENDBRANCH  21  22
DOCKED: ENDBRANCH   6  21
DOCKED: BRANCH   3  28
DOCKED: ATOM     28  O   UNL d   1      -7.031 -13.134 -13.991 -0.06 +0.00    -0.278 OA
DOCKED: BRANCH  28  29
DOCKED: ATOM     29  P   UNL d   1      -6.145 -13.885 -12.902 -0.14 -0.03    +0.473 P 
DOCKED: ATOM     30  O   UNL d   1      -5.648 -15.228 -13.297 -0.21 -0.03    -0.228 OA
DOCKED: BRANCH  29  31
DOCKED: ATOM     31  O   UNL d   1      -5.044 -12.760 -12.613 -0.19 +0.05    -0.303 OA
DOCKED: ATOM     32  H   UNL d   1      -4.947 -12.658 -11.638 -0.19 -0.09    +0.222 HD
DOCKED: ENDBRANCH  29  31
DOCKED: BRANCH  29  33
DOCKED: ATOM     33  O   UNL d   1      -7.070 -13.812 -11.609 -0.36 +0.07    -0.303 OA
DOCKED: ATOM     34  H   UNL d   1      -7.114 -12.874 -11.298 -0.02 -0.09    +0.222 HD
DOCKED: ENDBRANCH  29  33
DOCKED: ENDBRANCH  28  29
DOCKED: ENDBRANCH   3  28
DOCKED: BRANCH   5  35
DOCKED: ATOM     35  O   UNL d   1      -9.792  -9.417 -13.782 -0.07 +0.01    -0.278 OA
DOCKED: BRANCH  35  36
DOCKED: ATOM     36  P   UNL d   1     -10.219  -8.416 -12.616 -0.12 -0.06    +0.473 P 
DOCKED: ATOM     37  O   UNL d   1     -10.680  -9.062 -11.348 -0.25 +0.02    -0.228 OA
DOCKED: BRANCH  36  38
DOCKED: ATOM     38  O   UNL d   1      -8.910  -7.523 -12.457 -0.06 +0.08    -0.303 OA
DOCKED: ATOM     39  H   UNL d   1      -8.270  -7.992 -11.878 -0.40 -0.10    +0.222 HD
DOCKED: ENDBRANCH  36  38
DOCKED: BRANCH  36  40
DOCKED: ATOM     40  O   UNL d   1     -11.250  -7.455 -13.353 -0.06 +0.01    -0.303 OA
DOCKED: ATOM     41  H   UNL d   1     -10.879  -7.097 -14.190 +0.03 -0.00    +0.222 HD
DOCKED: ENDBRANCH  36  40
DOCKED: ENDBRANCH  35  36
DOCKED: ENDBRANCH   5  35
DOCKED: BRANCH   4  42
DOCKED: ATOM     42  O   UNL d   1      -8.049 -11.128 -12.193 -0.18 +0.05    -0.278 OA
DOCKED: BRANCH  42  43
DOCKED: ATOM     43  P   UNL d   1      -7.060 -10.085 -11.503 -0.19 -0.12    +0.473 P 
DOCKED: ATOM     44  O   UNL d   1      -6.416  -9.065 -12.378 -0.14 +0.03    -0.228 OA
DOCKED: BRANCH  43  45
DOCKED: ATOM     45  O   UNL d   1      -7.956  -9.471 -10.340 -0.27 +0.14    -0.303 OA
DOCKED: ATOM     46  H   UNL d   1      -8.655  -8.887 -10.697 -0.42 -0.15    +0.222 HD
DOCKED: ENDBRANCH  43  45
DOCKED: BRANCH  43  47
DOCKED: ATOM     47  O   UNL d   1      -6.054 -11.022 -10.679 -0.18 +0.12    -0.303 OA
DOCKED: ATOM     48  H   UNL d   1      -6.169 -11.951 -10.968 -0.15 -0.11    +0.222 HD
DOCKED: ENDBRANCH  43  47
DOCKED: ENDBRANCH  42  43
DOCKED: ENDBRANCH   4  42
DOCKED: TORSDOF 24
DOCKED: TER
DOCKED: ENDMDL
________________________________________________________________________________


	BEGINNING GENETIC ALGORITHM DOCKING 55 of 100
Run: 55 Seed: 191043756 577352420 [ Run 55 of 100 GA/GALS ]
Beginning LAMARCKIAN GENETIC ALGORITHM (LGA), with a maximum of 25000000 energy evaluations.

Final-Value: -17.705


	FINAL GENETIC ALGORITHM DOCKED STATE
	_______________________________________________


Detailed state:  trans -3.732 20.369 5.501 quatxyzw 0.263118 0.318372 -0.898938 -0.146009 center 0.035 0.082 -0.065 ntor 24 117.9021 51.3422 125.2073 -58.7237 1.0734 -88.1842 -114.7753 26.3745 119.4917 0.5114 66.2519 180.0000 144.2873 90.0013 -0.7063 48.3477 -116.1239 -162.9789 37.6083 -12.2254 -63.5111 160.8720 135.8033 -39.1115
State:	 -3.732  20.369   5.501   0.266  0.322 -0.909 -163.209    117.90   51.34  125.21  -58.72    1.07  -88.18 -114.78   26.37  119.49    0.51   66.25  180.00  144.29   90.00   -0.71   48.35 -116.12 -162.98   37.61  -12.23  -63.51  160.87  135.80  -39.11

DOCKED: MODEL       55
DOCKED: USER    Run = 55
DOCKED: USER    DPF = D:/Protein_go_brrr/autodock/final/mut_Y35F/IHP/dock.dpf
DOCKED: USER  
DOCKED: USER    Estimated Free Energy of Binding    =   +3.23 kcal/mol  [=(1)+(2)+(3)-(4)]
DOCKED: USER    
DOCKED: USER    (1) Final Intermolecular Energy     =   -3.93 kcal/mol
DOCKED: USER        vdW + Hbond + desolv Energy     =   -3.83 kcal/mol
DOCKED: USER        Electrostatic Energy            =   -0.10 kcal/mol
DOCKED: USER    (2) Final Total Internal Energy     =  -13.78 kcal/mol
DOCKED: USER    (3) Torsional Free Energy           =   +7.16 kcal/mol
DOCKED: USER    (4) Unbound System's Energy  [=(2)] =  -13.78 kcal/mol
DOCKED: USER    
DOCKED: USER    
DOCKED: USER    NEWDPF move IHP_ideal_opt.pdbqt
DOCKED: USER    NEWDPF about 0.035000 0.082000 -0.065000
DOCKED: USER    NEWDPF tran0 -3.731817 20.369474 5.500589
DOCKED: USER    NEWDPF quaternion0 0.263118 0.318372 -0.898938 -0.146009
DOCKED: USER    NEWDPF axisangle0 0.265968 0.321821 -0.908676 -163.208632
DOCKED: USER    NEWDPF quat0 0.265968 0.321821 -0.908676 -163.208632
DOCKED: USER    NEWDPF dihe0 117.90 51.34 125.21 -58.72 1.07 -88.18 -114.78 26.37 119.49 0.51 66.25 180.00 144.29 90.00 -0.71 48.35 -116.12 -162.98 37.61 -12.23 -63.51 160.87 135.80 -39.11 
DOCKED: USER  keepresnum = 1 
DOCKED: USER  
DOCKED: REMARK  24 active torsions:
DOCKED: REMARK  status: ('A' for Active; 'I' for Inactive)
DOCKED: REMARK    1  A    between atoms: C_1  and  O_7 
DOCKED: REMARK    2  A    between atoms: C_2  and  O_12 
DOCKED: REMARK    3  A    between atoms: C_3  and  O_17 
DOCKED: REMARK    4  A    between atoms: C_4  and  O_22 
DOCKED: REMARK    5  A    between atoms: C_5  and  O_27 
DOCKED: REMARK    6  A    between atoms: C_6  and  O_32 
DOCKED: REMARK    7  A    between atoms: O_7  and  P_8 
DOCKED: REMARK    8  A    between atoms: P_8  and  O_10 
DOCKED: REMARK    9  A    between atoms: P_8  and  O_11 
DOCKED: REMARK   10  A    between atoms: O_12  and  P_13 
DOCKED: REMARK   11  A    between atoms: P_13  and  O_15 
DOCKED: REMARK   12  A    between atoms: P_13  and  O_16 
DOCKED: REMARK   13  A    between atoms: O_17  and  P_18 
DOCKED: REMARK   14  A    between atoms: P_18  and  O_20 
DOCKED: REMARK   15  A    between atoms: P_18  and  O_21 
DOCKED: REMARK   16  A    between atoms: O_22  and  P_23 
DOCKED: REMARK   17  A    between atoms: P_23  and  O_25 
DOCKED: REMARK   18  A    between atoms: P_23  and  O_26 
DOCKED: REMARK   19  A    between atoms: O_27  and  P_28 
DOCKED: REMARK   20  A    between atoms: P_28  and  O_30 
DOCKED: REMARK   21  A    between atoms: P_28  and  O_31 
DOCKED: REMARK   22  A    between atoms: O_32  and  P_33 
DOCKED: REMARK   23  A    between atoms: P_33  and  O_35 
DOCKED: REMARK   24  A    between atoms: P_33  and  O_36 
DOCKED: USER                              x       y       z     vdW  Elec       q    Type
DOCKED: USER                           _______ _______ _______ _____ _____    ______ ____
DOCKED: ROOT
DOCKED: ATOM      1  C   UNL d   1      -5.440  20.407   5.753 -0.07 -0.09    +0.194 C 
DOCKED: ATOM      2  C   UNL d   1      -4.624  21.372   6.614 -0.08 -0.07    +0.194 C 
DOCKED: ATOM      3  C   UNL d   1      -3.361  20.708   7.168 -0.11 -0.07    +0.194 C 
DOCKED: ATOM      4  C   UNL d   1      -2.513  20.037   6.090 -0.16 -0.06    +0.194 C 
DOCKED: ATOM      5  C   UNL d   1      -3.307  19.154   5.135 -0.23 -0.06    +0.194 C 
DOCKED: ATOM      6  C   UNL d   1      -4.601  19.795   4.630 -0.16 -0.07    +0.194 C 
DOCKED: ENDROOT
DOCKED: BRANCH   1   7
DOCKED: ATOM      7  O   UNL d   1      -6.500  21.145   5.138 -0.07 +0.10    -0.278 OA
DOCKED: BRANCH   7   8
DOCKED: ATOM      8  P   UNL d   1      -7.850  21.363   5.963 -0.07 -0.20    +0.473 P 
DOCKED: ATOM      9  O   UNL d   1      -9.020  21.800   5.154 -0.03 +0.07    -0.228 OA
DOCKED: BRANCH   8  10
DOCKED: ATOM     10  O   UNL d   1      -8.083  19.967   6.700 -0.20 +0.25    -0.303 OA
DOCKED: ATOM     11  H   UNL d   1      -7.856  19.236   6.095 -0.52 -0.22    +0.222 HD
DOCKED: ENDBRANCH   8  10
DOCKED: BRANCH   8  12
DOCKED: ATOM     12  O   UNL d   1      -7.448  22.313   7.171 -0.03 +0.12    -0.303 OA
DOCKED: ATOM     13  H   UNL d   1      -6.522  22.640   7.113 +0.03 -0.07    +0.222 HD
DOCKED: ENDBRANCH   8  12
DOCKED: ENDBRANCH   7   8
DOCKED: ENDBRANCH   1   7
DOCKED: BRANCH   2  14
DOCKED: ATOM     14  O   UNL d   1      -4.235  22.497   5.816 -0.01 +0.06    -0.278 OA
DOCKED: BRANCH  14  15
DOCKED: ATOM     15  P   UNL d   1      -4.759  23.931   6.298 +0.00 -0.09    +0.473 P 
DOCKED: ATOM     16  O   UNL d   1      -3.841  25.092   6.071 -0.00 +0.03    -0.228 OA
DOCKED: BRANCH  15  17
DOCKED: ATOM     17  O   UNL d   1      -6.161  24.100   5.561 +0.00 +0.05    -0.303 OA
DOCKED: ATOM     18  H   UNL d   1      -6.585  23.233   5.409 +0.01 -0.05    +0.222 HD
DOCKED: ENDBRANCH  15  17
DOCKED: BRANCH  15  19
DOCKED: ATOM     19  O   UNL d   1      -5.214  23.702   7.804 +0.00 +0.07    -0.303 OA
DOCKED: ATOM     20  H   UNL d   1      -6.165  23.881   7.925 +0.01 -0.05    +0.222 HD
DOCKED: ENDBRANCH  15  19
DOCKED: ENDBRANCH  14  15
DOCKED: ENDBRANCH   2  14
DOCKED: BRANCH   6  21
DOCKED: ATOM     21  O   UNL d   1      -5.378  18.751   4.048 -0.18 +0.12    -0.278 OA
DOCKED: BRANCH  21  22
DOCKED: ATOM     22  P   UNL d   1      -6.630  19.114   3.128 -0.11 -0.15    +0.473 P 
DOCKED: ATOM     23  O   UNL d   1      -6.594  20.393   2.362 -0.03 +0.05    -0.228 OA
DOCKED: BRANCH  22  24
DOCKED: ATOM     24  O   UNL d   1      -6.768  17.804   2.235 -0.13 +0.08    -0.303 OA
DOCKED: ATOM     25  H   UNL d   1      -5.957  17.731   1.669 +0.08 -0.06    +0.222 HD
DOCKED: ENDBRANCH  22  24
DOCKED: BRANCH  22  26
DOCKED: ATOM     26  O   UNL d   1      -7.849  18.944   4.155 -0.28 +0.13    -0.303 OA
DOCKED: ATOM     27  H   UNL d   1      -8.095  19.822   4.511 -0.00 -0.09    +0.222 HD
DOCKED: ENDBRANCH  22  26
DOCKED: ENDBRANCH  21  22
DOCKED: ENDBRANCH   6  21
DOCKED: BRANCH   3  28
DOCKED: ATOM     28  O   UNL d   1      -2.540  21.734   7.710 -0.02 +0.08    -0.278 OA
DOCKED: BRANCH  28  29
DOCKED: ATOM     29  P   UNL d   1      -1.485  22.492   6.788 +0.01 -0.10    +0.473 P 
DOCKED: ATOM     30  O   UNL d   1      -1.765  22.452   5.330 -0.01 +0.04    -0.228 OA
DOCKED: BRANCH  29  31
DOCKED: ATOM     31  O   UNL d   1      -1.485  23.930   7.489 -0.00 +0.05    -0.303 OA
DOCKED: ATOM     32  H   UNL d   1      -2.385  24.321   7.404 +0.00 -0.04    +0.222 HD
DOCKED: ENDBRANCH  29  31
DOCKED: BRANCH  29  33
DOCKED: ATOM     33  O   UNL d   1      -0.105  21.863   7.274 -0.04 +0.08    -0.303 OA
DOCKED: ATOM     34  H   UNL d   1       0.057  21.024   6.778 +0.08 -0.06    +0.222 HD
DOCKED: ENDBRANCH  29  33
DOCKED: ENDBRANCH  28  29
DOCKED: ENDBRANCH   3  28
DOCKED: BRANCH   5  35
DOCKED: ATOM     35  O   UNL d   1      -2.465  18.957   4.001 -0.15 +0.06    -0.278 OA
DOCKED: BRANCH  35  36
DOCKED: ATOM     36  P   UNL d   1      -2.587  19.916   2.733 -0.03 -0.09    +0.473 P 
DOCKED: ATOM     37  O   UNL d   1      -3.817  19.734   1.902 -0.05 +0.05    -0.228 OA
DOCKED: BRANCH  36  38
DOCKED: ATOM     38  O   UNL d   1      -2.454  21.356   3.399 -0.01 +0.05    -0.303 OA
DOCKED: ATOM     39  H   UNL d   1      -1.671  21.365   3.991 +0.04 -0.04    +0.222 HD
DOCKED: ENDBRANCH  36  38
DOCKED: BRANCH  36  40
DOCKED: ATOM     40  O   UNL d   1      -1.188  19.700   2.008 -0.04 +0.06    -0.303 OA
DOCKED: ATOM     41  H   UNL d   1      -0.446  19.658   2.652 +0.09 -0.04    +0.222 HD
DOCKED: ENDBRANCH  36  40
DOCKED: ENDBRANCH  35  36
DOCKED: ENDBRANCH   5  35
DOCKED: BRANCH   4  42
DOCKED: ATOM     42  O   UNL d   1      -1.577  19.191   6.766 -0.20 +0.11    -0.278 OA
DOCKED: BRANCH  42  43
DOCKED: ATOM     43  P   UNL d   1      -0.156  18.920   6.093 -0.22 -0.15    +0.473 P 
DOCKED: ATOM     44  O   UNL d   1       0.167  17.517   5.713 -0.45 +0.07    -0.228 OA
DOCKED: BRANCH  43  45
DOCKED: ATOM     45  O   UNL d   1      -0.147  19.943   4.874 -0.13 +0.06    -0.303 OA
DOCKED: ATOM     46  H   UNL d   1      -1.013  20.386   4.772 +0.08 -0.05    +0.222 HD
DOCKED: ENDBRANCH  43  45
DOCKED: BRANCH  43  47
DOCKED: ATOM     47  O   UNL d   1       0.869  19.616   7.110 -0.53 +0.11    -0.303 OA
DOCKED: ATOM     48  H   UNL d   1       0.367  20.025   7.845 +0.09 -0.10    +0.222 HD
DOCKED: ENDBRANCH  43  47
DOCKED: ENDBRANCH  42  43
DOCKED: ENDBRANCH   4  42
DOCKED: TORSDOF 24
DOCKED: TER
DOCKED: ENDMDL
________________________________________________________________________________


	BEGINNING GENETIC ALGORITHM DOCKING 56 of 100
Run: 56 Seed: 414560632 198189016 [ Run 56 of 100 GA/GALS ]
Beginning LAMARCKIAN GENETIC ALGORITHM (LGA), with a maximum of 25000000 energy evaluations.

Final-Value: -16.242


	FINAL GENETIC ALGORITHM DOCKED STATE
	_______________________________________________


Detailed state:  trans -12.100 -16.374 -12.038 quatxyzw 0.015138 0.250469 0.956144 -0.151077 center 0.035 0.082 -0.065 ntor 24 -150.1495 -22.2166 33.0831 81.3078 82.3683 104.7687 -64.7622 -53.7704 70.1948 -170.0401 28.1241 -143.7718 41.5705 -70.9619 49.4322 51.8104 -132.0405 139.1017 -143.7978 -5.2796 -177.2928 -8.1788 -4.6721 -7.3021
State:	-12.100 -16.374 -12.038   0.015  0.253  0.967 -162.621   -150.15  -22.22   33.08   81.31   82.37  104.77  -64.76  -53.77   70.19 -170.04   28.12 -143.77   41.57  -70.96   49.43   51.81 -132.04  139.10 -143.80   -5.28 -177.29   -8.18   -4.67   -7.30

DOCKED: MODEL       56
DOCKED: USER    Run = 56
DOCKED: USER    DPF = D:/Protein_go_brrr/autodock/final/mut_Y35F/IHP/dock.dpf
DOCKED: USER  
DOCKED: USER    Estimated Free Energy of Binding    =   +3.87 kcal/mol  [=(1)+(2)+(3)-(4)]
DOCKED: USER    
DOCKED: USER    (1) Final Intermolecular Energy     =   -3.29 kcal/mol
DOCKED: USER        vdW + Hbond + desolv Energy     =   -3.34 kcal/mol
DOCKED: USER        Electrostatic Energy            =   +0.05 kcal/mol
DOCKED: USER    (2) Final Total Internal Energy     =  -12.95 kcal/mol
DOCKED: USER    (3) Torsional Free Energy           =   +7.16 kcal/mol
DOCKED: USER    (4) Unbound System's Energy  [=(2)] =  -12.95 kcal/mol
DOCKED: USER    
DOCKED: USER    
DOCKED: USER    NEWDPF move IHP_ideal_opt.pdbqt
DOCKED: USER    NEWDPF about 0.035000 0.082000 -0.065000
DOCKED: USER    NEWDPF tran0 -12.100403 -16.374330 -12.038171
DOCKED: USER    NEWDPF quaternion0 0.015138 0.250469 0.956144 -0.151077
DOCKED: USER    NEWDPF axisangle0 0.015313 0.253377 0.967246 -162.621356
DOCKED: USER    NEWDPF quat0 0.015313 0.253377 0.967246 -162.621356
DOCKED: USER    NEWDPF dihe0 -150.15 -22.22 33.08 81.31 82.37 104.77 -64.76 -53.77 70.19 -170.04 28.12 -143.77 41.57 -70.96 49.43 51.81 -132.04 139.10 -143.80 -5.28 -177.29 -8.18 -4.67 -7.30 
DOCKED: USER  keepresnum = 1 
DOCKED: USER  
DOCKED: REMARK  24 active torsions:
DOCKED: REMARK  status: ('A' for Active; 'I' for Inactive)
DOCKED: REMARK    1  A    between atoms: C_1  and  O_7 
DOCKED: REMARK    2  A    between atoms: C_2  and  O_12 
DOCKED: REMARK    3  A    between atoms: C_3  and  O_17 
DOCKED: REMARK    4  A    between atoms: C_4  and  O_22 
DOCKED: REMARK    5  A    between atoms: C_5  and  O_27 
DOCKED: REMARK    6  A    between atoms: C_6  and  O_32 
DOCKED: REMARK    7  A    between atoms: O_7  and  P_8 
DOCKED: REMARK    8  A    between atoms: P_8  and  O_10 
DOCKED: REMARK    9  A    between atoms: P_8  and  O_11 
DOCKED: REMARK   10  A    between atoms: O_12  and  P_13 
DOCKED: REMARK   11  A    between atoms: P_13  and  O_15 
DOCKED: REMARK   12  A    between atoms: P_13  and  O_16 
DOCKED: REMARK   13  A    between atoms: O_17  and  P_18 
DOCKED: REMARK   14  A    between atoms: P_18  and  O_20 
DOCKED: REMARK   15  A    between atoms: P_18  and  O_21 
DOCKED: REMARK   16  A    between atoms: O_22  and  P_23 
DOCKED: REMARK   17  A    between atoms: P_23  and  O_25 
DOCKED: REMARK   18  A    between atoms: P_23  and  O_26 
DOCKED: REMARK   19  A    between atoms: O_27  and  P_28 
DOCKED: REMARK   20  A    between atoms: P_28  and  O_30 
DOCKED: REMARK   21  A    between atoms: P_28  and  O_31 
DOCKED: REMARK   22  A    between atoms: O_32  and  P_33 
DOCKED: REMARK   23  A    between atoms: P_33  and  O_35 
DOCKED: REMARK   24  A    between atoms: P_33  and  O_36 
DOCKED: USER                              x       y       z     vdW  Elec       q    Type
DOCKED: USER                           _______ _______ _______ _____ _____    ______ ____
DOCKED: ROOT
DOCKED: ATOM      1  C   UNL d   1     -12.963 -14.892 -11.835 -0.09 +0.03    +0.194 C 
DOCKED: ATOM      2  C   UNL d   1     -11.585 -14.770 -12.488 -0.11 +0.03    +0.194 C 
DOCKED: ATOM      3  C   UNL d   1     -10.544 -15.639 -11.779 -0.21 +0.02    +0.194 C 
DOCKED: ATOM      4  C   UNL d   1     -10.981 -17.093 -11.621 -0.14 +0.02    +0.194 C 
DOCKED: ATOM      5  C   UNL d   1     -12.395 -17.260 -11.079 -0.10 +0.02    +0.194 C 
DOCKED: ATOM      6  C   UNL d   1     -13.426 -16.346 -11.746 -0.09 +0.02    +0.194 C 
DOCKED: ENDROOT
DOCKED: BRANCH   1   7
DOCKED: ATOM      7  O   UNL d   1     -13.906 -14.193 -12.651 -0.10 -0.03    -0.278 OA
DOCKED: BRANCH   7   8
DOCKED: ATOM      8  P   UNL d   1     -14.714 -15.020 -13.754 -0.02 +0.03    +0.473 P 
DOCKED: ATOM      9  O   UNL d   1     -16.036 -15.539 -13.311 -0.02 -0.01    -0.228 OA
DOCKED: BRANCH   8  10
DOCKED: ATOM     10  O   UNL d   1     -14.815 -14.017 -14.991 -0.01 -0.01    -0.303 OA
DOCKED: ATOM     11  H   UNL d   1     -13.927 -13.681 -15.213 +0.02 +0.01    +0.222 HD
DOCKED: ENDBRANCH   8  10
DOCKED: BRANCH   8  12
DOCKED: ATOM     12  O   UNL d   1     -13.686 -16.107 -14.290 -0.01 -0.02    -0.303 OA
DOCKED: ATOM     13  H   UNL d   1     -12.937 -15.714 -14.792 +0.02 +0.01    +0.222 HD
DOCKED: ENDBRANCH   8  12
DOCKED: ENDBRANCH   7   8
DOCKED: ENDBRANCH   1   7
DOCKED: BRANCH   2  14
DOCKED: ATOM     14  O   UNL d   1     -11.677 -15.191 -13.854 -0.05 -0.02    -0.278 OA
DOCKED: BRANCH  14  15
DOCKED: ATOM     15  P   UNL d   1     -11.142 -14.162 -14.958 -0.02 +0.03    +0.473 P 
DOCKED: ATOM     16  O   UNL d   1     -10.935 -12.748 -14.514 -0.07 -0.01    -0.228 OA
DOCKED: BRANCH  15  17
DOCKED: ATOM     17  O   UNL d   1      -9.808 -14.839 -15.505 -0.01 -0.03    -0.303 OA
DOCKED: ATOM     18  H   UNL d   1      -9.141 -14.924 -14.797 +0.05 +0.02    +0.222 HD
DOCKED: ENDBRANCH  15  17
DOCKED: BRANCH  15  19
DOCKED: ATOM     19  O   UNL d   1     -12.127 -14.355 -16.192 -0.01 -0.02    -0.303 OA
DOCKED: ATOM     20  H   UNL d   1     -12.976 -14.749 -15.917 +0.01 +0.01    +0.222 HD
DOCKED: ENDBRANCH  15  19
DOCKED: ENDBRANCH  14  15
DOCKED: ENDBRANCH   2  14
DOCKED: BRANCH   6  21
DOCKED: ATOM     21  O   UNL d   1     -14.589 -16.366 -10.921 -0.05 -0.02    -0.278 OA
DOCKED: BRANCH  21  22
DOCKED: ATOM     22  P   UNL d   1     -14.644 -15.460  -9.609 -0.16 +0.06    +0.473 P 
DOCKED: ATOM     23  O   UNL d   1     -14.956 -14.010  -9.766 -0.24 -0.04    -0.228 OA
DOCKED: BRANCH  22  24
DOCKED: ATOM     24  O   UNL d   1     -15.669 -16.268  -8.699 -0.07 -0.02    -0.303 OA
DOCKED: ATOM     25  H   UNL d   1     -15.757 -17.183  -9.071 +0.03 +0.01    +0.222 HD
DOCKED: ENDBRANCH  22  24
DOCKED: BRANCH  22  26
DOCKED: ATOM     26  O   UNL d   1     -13.241 -15.806  -8.915 -0.20 -0.07    -0.303 OA
DOCKED: ATOM     27  H   UNL d   1     -13.262 -16.729  -8.589 +0.06 +0.04    +0.222 HD
DOCKED: ENDBRANCH  22  26
DOCKED: ENDBRANCH  21  22
DOCKED: ENDBRANCH   6  21
DOCKED: BRANCH   3  28
DOCKED: ATOM     28  O   UNL d   1      -9.387 -15.681 -12.605 -0.14 -0.02    -0.278 OA
DOCKED: BRANCH  28  29
DOCKED: ATOM     29  P   UNL d   1      -8.114 -14.792 -12.252 -0.26 +0.00    +0.473 P 
DOCKED: ATOM     30  O   UNL d   1      -7.959 -14.436 -10.819 -0.50 +0.04    -0.228 OA
DOCKED: BRANCH  29  31
DOCKED: ATOM     31  O   UNL d   1      -6.959 -15.686 -12.908 -0.18 -0.05    -0.303 OA
DOCKED: ATOM     32  H   UNL d   1      -7.332 -16.571 -13.124 +0.06 +0.06    +0.222 HD
DOCKED: ENDBRANCH  29  31
DOCKED: BRANCH  29  33
DOCKED: ATOM     33  O   UNL d   1      -8.253 -13.586 -13.283 -0.09 -0.00    -0.303 OA
DOCKED: ATOM     34  H   UNL d   1      -9.106 -13.679 -13.773 +0.07 +0.01    +0.222 HD
DOCKED: ENDBRANCH  29  33
DOCKED: ENDBRANCH  28  29
DOCKED: ENDBRANCH   3  28
DOCKED: BRANCH   5  35
DOCKED: ATOM     35  O   UNL d   1     -12.769 -18.603 -11.380 -0.02 -0.02    -0.278 OA
DOCKED: BRANCH  35  36
DOCKED: ATOM     36  P   UNL d   1     -13.284 -19.573 -10.223 -0.01 +0.02    +0.473 P 
DOCKED: ATOM     37  O   UNL d   1     -12.220 -20.328  -9.492 -0.02 -0.01    -0.228 OA
DOCKED: BRANCH  36  38
DOCKED: ATOM     38  O   UNL d   1     -14.123 -18.574  -9.310 -0.02 -0.02    -0.303 OA
DOCKED: ATOM     39  H   UNL d   1     -14.090 -17.675  -9.702 +0.04 +0.02    +0.222 HD
DOCKED: ENDBRANCH  36  38
DOCKED: BRANCH  36  40
DOCKED: ATOM     40  O   UNL d   1     -14.395 -20.433 -10.970 -0.00 -0.01    -0.303 OA
DOCKED: ATOM     41  H   UNL d   1     -14.455 -21.344 -10.607 +0.00 +0.01    +0.222 HD
DOCKED: ENDBRANCH  36  40
DOCKED: ENDBRANCH  35  36
DOCKED: ENDBRANCH   5  35
DOCKED: BRANCH   4  42
DOCKED: ATOM     42  O   UNL d   1     -10.094 -17.692 -10.671 -0.16 -0.01    -0.278 OA
DOCKED: BRANCH  42  43
DOCKED: ATOM     43  P   UNL d   1      -9.184 -18.918 -11.132 -0.13 +0.04    +0.473 P 
DOCKED: ATOM     44  O   UNL d   1      -8.354 -19.588 -10.092 -0.20 -0.00    -0.228 OA
DOCKED: BRANCH  43  45
DOCKED: ATOM     45  O   UNL d   1     -10.231 -19.880 -11.848 -0.04 -0.04    -0.303 OA
DOCKED: ATOM     46  H   UNL d   1     -11.051 -19.970 -11.322 +0.03 +0.02    +0.222 HD
DOCKED: ENDBRANCH  43  45
DOCKED: BRANCH  43  47
DOCKED: ATOM     47  O   UNL d   1      -8.377 -18.326 -12.384 -0.18 -0.08    -0.303 OA
DOCKED: ATOM     48  H   UNL d   1      -8.181 -17.379 -12.223 +0.01 +0.04    +0.222 HD
DOCKED: ENDBRANCH  43  47
DOCKED: ENDBRANCH  42  43
DOCKED: ENDBRANCH   4  42
DOCKED: TORSDOF 24
DOCKED: TER
DOCKED: ENDMDL
________________________________________________________________________________


	BEGINNING GENETIC ALGORITHM DOCKING 57 of 100
Run: 57 Seed: 1478128615 1906646425 [ Run 57 of 100 GA/GALS ]
Beginning LAMARCKIAN GENETIC ALGORITHM (LGA), with a maximum of 25000000 energy evaluations.

Final-Value: -16.927


	FINAL GENETIC ALGORITHM DOCKED STATE
	_______________________________________________


Detailed state:  trans -5.141 -11.180 13.053 quatxyzw 0.413427 -0.794744 0.264735 -0.356896 center 0.035 0.082 -0.065 ntor 24 121.8066 112.4404 154.8944 49.7141 19.2881 -149.0285 -106.9608 19.0513 18.6853 22.1357 95.9469 10.0125 -50.6936 -157.0377 -56.1688 28.9028 141.0880 -111.1037 24.9021 -31.1595 172.8595 -45.3447 -15.9527 140.1961
State:	 -5.141 -11.180  13.053   0.443 -0.851  0.283 -138.181    121.81  112.44  154.89   49.71   19.29 -149.03 -106.96   19.05   18.69   22.14   95.95   10.01  -50.69 -157.04  -56.17   28.90  141.09 -111.10   24.90  -31.16  172.86  -45.34  -15.95  140.20

DOCKED: MODEL       57
DOCKED: USER    Run = 57
DOCKED: USER    DPF = D:/Protein_go_brrr/autodock/final/mut_Y35F/IHP/dock.dpf
DOCKED: USER  
DOCKED: USER    Estimated Free Energy of Binding    =   +3.31 kcal/mol  [=(1)+(2)+(3)-(4)]
DOCKED: USER    
DOCKED: USER    (1) Final Intermolecular Energy     =   -3.85 kcal/mol
DOCKED: USER        vdW + Hbond + desolv Energy     =   -3.66 kcal/mol
DOCKED: USER        Electrostatic Energy            =   -0.18 kcal/mol
DOCKED: USER    (2) Final Total Internal Energy     =  -13.08 kcal/mol
DOCKED: USER    (3) Torsional Free Energy           =   +7.16 kcal/mol
DOCKED: USER    (4) Unbound System's Energy  [=(2)] =  -13.08 kcal/mol
DOCKED: USER    
DOCKED: USER    
DOCKED: USER    NEWDPF move IHP_ideal_opt.pdbqt
DOCKED: USER    NEWDPF about 0.035000 0.082000 -0.065000
DOCKED: USER    NEWDPF tran0 -5.141086 -11.180148 13.052829
DOCKED: USER    NEWDPF quaternion0 0.413427 -0.794744 0.264735 -0.356896
DOCKED: USER    NEWDPF axisangle0 0.442573 -0.850773 0.283398 -138.180568
DOCKED: USER    NEWDPF quat0 0.442573 -0.850773 0.283398 -138.180568
DOCKED: USER    NEWDPF dihe0 121.81 112.44 154.89 49.71 19.29 -149.03 -106.96 19.05 18.69 22.14 95.95 10.01 -50.69 -157.04 -56.17 28.90 141.09 -111.10 24.90 -31.16 172.86 -45.34 -15.95 140.20 
DOCKED: USER  keepresnum = 1 
DOCKED: USER  
DOCKED: REMARK  24 active torsions:
DOCKED: REMARK  status: ('A' for Active; 'I' for Inactive)
DOCKED: REMARK    1  A    between atoms: C_1  and  O_7 
DOCKED: REMARK    2  A    between atoms: C_2  and  O_12 
DOCKED: REMARK    3  A    between atoms: C_3  and  O_17 
DOCKED: REMARK    4  A    between atoms: C_4  and  O_22 
DOCKED: REMARK    5  A    between atoms: C_5  and  O_27 
DOCKED: REMARK    6  A    between atoms: C_6  and  O_32 
DOCKED: REMARK    7  A    between atoms: O_7  and  P_8 
DOCKED: REMARK    8  A    between atoms: P_8  and  O_10 
DOCKED: REMARK    9  A    between atoms: P_8  and  O_11 
DOCKED: REMARK   10  A    between atoms: O_12  and  P_13 
DOCKED: REMARK   11  A    between atoms: P_13  and  O_15 
DOCKED: REMARK   12  A    between atoms: P_13  and  O_16 
DOCKED: REMARK   13  A    between atoms: O_17  and  P_18 
DOCKED: REMARK   14  A    between atoms: P_18  and  O_20 
DOCKED: REMARK   15  A    between atoms: P_18  and  O_21 
DOCKED: REMARK   16  A    between atoms: O_22  and  P_23 
DOCKED: REMARK   17  A    between atoms: P_23  and  O_25 
DOCKED: REMARK   18  A    between atoms: P_23  and  O_26 
DOCKED: REMARK   19  A    between atoms: O_27  and  P_28 
DOCKED: REMARK   20  A    between atoms: P_28  and  O_30 
DOCKED: REMARK   21  A    between atoms: P_28  and  O_31 
DOCKED: REMARK   22  A    between atoms: O_32  and  P_33 
DOCKED: REMARK   23  A    between atoms: P_33  and  O_35 
DOCKED: REMARK   24  A    between atoms: P_33  and  O_36 
DOCKED: USER                              x       y       z     vdW  Elec       q    Type
DOCKED: USER                           _______ _______ _______ _____ _____    ______ ____
DOCKED: ROOT
DOCKED: ATOM      1  C   UNL d   1      -5.171 -12.793  13.671 -0.02 -0.00    +0.194 C 
DOCKED: ATOM      2  C   UNL d   1      -3.859 -12.361  13.014 -0.04 -0.01    +0.194 C 
DOCKED: ATOM      3  C   UNL d   1      -4.102 -11.587  11.717 -0.11 -0.01    +0.194 C 
DOCKED: ATOM      4  C   UNL d   1      -5.074 -10.422  11.885 -0.11 -0.01    +0.194 C 
DOCKED: ATOM      5  C   UNL d   1      -6.349 -10.781  12.637 -0.15 +0.00    +0.194 C 
DOCKED: ATOM      6  C   UNL d   1      -6.110 -11.608  13.902 -0.05 +0.00    +0.194 C 
DOCKED: ENDROOT
DOCKED: BRANCH   1   7
DOCKED: ATOM      7  O   UNL d   1      -4.866 -13.351  14.951 -0.00 +0.01    -0.278 OA
DOCKED: BRANCH   7   8
DOCKED: ATOM      8  P   UNL d   1      -4.761 -14.940  15.081 -0.00 -0.01    +0.473 P 
DOCKED: ATOM      9  O   UNL d   1      -4.977 -15.692  13.815 -0.00 +0.00    -0.228 OA
DOCKED: BRANCH   8  10
DOCKED: ATOM     10  O   UNL d   1      -3.318 -15.182  15.717 -0.00 +0.01    -0.303 OA
DOCKED: ATOM     11  H   UNL d   1      -2.691 -14.524  15.363 +0.00 -0.01    +0.222 HD
DOCKED: ENDBRANCH   8  10
DOCKED: BRANCH   8  12
DOCKED: ATOM     12  O   UNL d   1      -5.724 -15.321  16.286 +0.00 +0.00    -0.303 OA
DOCKED: ATOM     13  H   UNL d   1      -6.674 -15.160  16.087 +0.00 -0.00    +0.222 HD
DOCKED: ENDBRANCH   8  12
DOCKED: ENDBRANCH   7   8
DOCKED: ENDBRANCH   1   7
DOCKED: BRANCH   2  14
DOCKED: ATOM     14  O   UNL d   1      -3.138 -11.517  13.921 -0.04 +0.02    -0.278 OA
DOCKED: BRANCH  14  15
DOCKED: ATOM     15  P   UNL d   1      -1.945 -12.201  14.741 -0.00 -0.03    +0.473 P 
DOCKED: ATOM     16  O   UNL d   1      -2.232 -12.568  16.164 -0.01 +0.01    -0.228 OA
DOCKED: BRANCH  15  17
DOCKED: ATOM     17  O   UNL d   1      -1.532 -13.456  13.851 -0.00 +0.02    -0.303 OA
DOCKED: ATOM     18  H   UNL d   1      -1.252 -13.176  12.958 +0.01 -0.01    +0.222 HD
DOCKED: ENDBRANCH  15  17
DOCKED: BRANCH  15  19
DOCKED: ATOM     19  O   UNL d   1      -0.704 -11.230  14.520 -0.01 +0.03    -0.303 OA
DOCKED: ATOM     20  H   UNL d   1      -0.889 -10.558  13.838 +0.04 -0.03    +0.222 HD
DOCKED: ENDBRANCH  15  19
DOCKED: ENDBRANCH  14  15
DOCKED: ENDBRANCH   2  14
DOCKED: BRANCH   6  21
DOCKED: ATOM     21  O   UNL d   1      -7.373 -12.145  14.289 -0.01 -0.02    -0.278 OA
DOCKED: BRANCH  21  22
DOCKED: ATOM     22  P   UNL d   1      -8.049 -13.291  13.410 -0.00 +0.05    +0.473 P 
DOCKED: ATOM     23  O   UNL d   1      -7.696 -13.370  11.963 -0.05 -0.02    -0.228 OA
DOCKED: BRANCH  22  24
DOCKED: ATOM     24  O   UNL d   1      -7.703 -14.596  14.253 -0.00 -0.01    -0.303 OA
DOCKED: ATOM     25  H   UNL d   1      -6.743 -14.559  14.498 +0.01 +0.00    +0.222 HD
DOCKED: ENDBRANCH  22  24
DOCKED: BRANCH  22  26
DOCKED: ATOM     26  O   UNL d   1      -9.603 -13.084  13.744 -0.02 -0.07    -0.303 OA
DOCKED: ATOM     27  H   UNL d   1      -9.788 -12.126  13.833 +0.02 +0.08    +0.222 HD
DOCKED: ENDBRANCH  22  26
DOCKED: ENDBRANCH  21  22
DOCKED: ENDBRANCH   6  21
DOCKED: BRANCH   3  28
DOCKED: ATOM     28  O   UNL d   1      -2.868 -10.996  11.332 -0.10 +0.02    -0.278 OA
DOCKED: BRANCH  28  29
DOCKED: ATOM     29  P   UNL d   1      -1.633 -11.911  10.915 -0.01 -0.04    +0.473 P 
DOCKED: ATOM     30  O   UNL d   1      -1.896 -13.373  10.896 -0.03 +0.01    -0.228 OA
DOCKED: BRANCH  29  31
DOCKED: ATOM     31  O   UNL d   1      -1.235 -11.226   9.525 -0.09 +0.03    -0.303 OA
DOCKED: ATOM     32  H   UNL d   1      -2.029 -11.216   8.941 +0.12 -0.02    +0.222 HD
DOCKED: ENDBRANCH  29  31
DOCKED: BRANCH  29  33
DOCKED: ATOM     33  O   UNL d   1      -0.490 -11.399  11.899 -0.02 +0.04    -0.303 OA
DOCKED: ATOM     34  H   UNL d   1      -0.636 -11.793  12.793 +0.03 -0.02    +0.222 HD
DOCKED: ENDBRANCH  29  33
DOCKED: ENDBRANCH  28  29
DOCKED: ENDBRANCH   3  28
DOCKED: BRANCH   5  35
DOCKED: ATOM     35  O   UNL d   1      -6.919  -9.540  13.049 -0.17 +0.02    -0.278 OA
DOCKED: BRANCH  35  36
DOCKED: ATOM     36  P   UNL d   1      -8.322  -9.064  12.459 -0.15 +0.18    +0.473 P 
DOCKED: ATOM     37  O   UNL d   1      -8.760  -7.692  12.863 -0.45 -0.04    -0.228 OA
DOCKED: BRANCH  36  38
DOCKED: ATOM     38  O   UNL d   1      -8.096  -9.244  10.893 -0.27 -0.08    -0.303 OA
DOCKED: ATOM     39  H   UNL d   1      -7.264  -8.791  10.634 -0.41 -0.06    +0.222 HD
DOCKED: ENDBRANCH  36  38
DOCKED: BRANCH  36  40
DOCKED: ATOM     40  O   UNL d   1      -9.282 -10.272  12.848 -0.26 -0.29    -0.303 OA
DOCKED: ATOM     41  H   UNL d   1      -8.775 -11.091  13.044 +0.05 +0.10    +0.222 HD
DOCKED: ENDBRANCH  36  40
DOCKED: ENDBRANCH  35  36
DOCKED: ENDBRANCH   5  35
DOCKED: BRANCH   4  42
DOCKED: ATOM     42  O   UNL d   1      -5.463 -10.014  10.569 -0.25 +0.03    -0.278 OA
DOCKED: BRANCH  42  43
DOCKED: ATOM     43  P   UNL d   1      -5.481 -11.097   9.398 -0.14 -0.06    +0.473 P 
DOCKED: ATOM     44  O   UNL d   1      -4.176 -11.690   8.992 -0.20 +0.01    -0.228 OA
DOCKED: BRANCH  43  45
DOCKED: ATOM     45  O   UNL d   1      -6.544 -12.159   9.922 -0.11 +0.03    -0.303 OA
DOCKED: ATOM     46  H   UNL d   1      -7.158 -11.761  10.570 +0.07 +0.01    +0.222 HD
DOCKED: ENDBRANCH  43  45
DOCKED: BRANCH  43  47
DOCKED: ATOM     47  O   UNL d   1      -6.300 -10.363   8.232 -0.30 +0.07    -0.303 OA
DOCKED: ATOM     48  H   UNL d   1      -6.489 -11.006   7.517 -0.40 -0.11    +0.222 HD
DOCKED: ENDBRANCH  43  47
DOCKED: ENDBRANCH  42  43
DOCKED: ENDBRANCH   4  42
DOCKED: TORSDOF 24
DOCKED: TER
DOCKED: ENDMDL
________________________________________________________________________________


	BEGINNING GENETIC ALGORITHM DOCKING 58 of 100
Run: 58 Seed: 1327955337 2031964486 [ Run 58 of 100 GA/GALS ]
Beginning LAMARCKIAN GENETIC ALGORITHM (LGA), with a maximum of 25000000 energy evaluations.

Final-Value: -17.209


	FINAL GENETIC ALGORITHM DOCKED STATE
	_______________________________________________


Detailed state:  trans -1.915 10.491 21.616 quatxyzw -0.241037 -0.725430 0.576739 -0.288139 center 0.035 0.082 -0.065 ntor 24 110.4886 129.0086 144.9055 33.2029 119.2326 81.5720 -36.2815 -156.1824 142.2050 -2.0983 -24.1661 129.6480 -73.9476 179.7481 -174.5861 -37.5884 168.8936 -88.4793 -151.3497 -3.6347 10.5353 135.6874 -180.0000 -105.2551
State:	 -1.915  10.491  21.616  -0.252 -0.758  0.602 -146.507    110.49  129.01  144.91   33.20  119.23   81.57  -36.28 -156.18  142.21   -2.10  -24.17  129.65  -73.95  179.75 -174.59  -37.59  168.89  -88.48 -151.35   -3.63   10.54  135.69 -180.00 -105.26

DOCKED: MODEL       58
DOCKED: USER    Run = 58
DOCKED: USER    DPF = D:/Protein_go_brrr/autodock/final/mut_Y35F/IHP/dock.dpf
DOCKED: USER  
DOCKED: USER    Estimated Free Energy of Binding    =   +3.88 kcal/mol  [=(1)+(2)+(3)-(4)]
DOCKED: USER    
DOCKED: USER    (1) Final Intermolecular Energy     =   -3.28 kcal/mol
DOCKED: USER        vdW + Hbond + desolv Energy     =   -2.82 kcal/mol
DOCKED: USER        Electrostatic Energy            =   -0.45 kcal/mol
DOCKED: USER    (2) Final Total Internal Energy     =  -13.93 kcal/mol
DOCKED: USER    (3) Torsional Free Energy           =   +7.16 kcal/mol
DOCKED: USER    (4) Unbound System's Energy  [=(2)] =  -13.93 kcal/mol
DOCKED: USER    
DOCKED: USER    
DOCKED: USER    NEWDPF move IHP_ideal_opt.pdbqt
DOCKED: USER    NEWDPF about 0.035000 0.082000 -0.065000
DOCKED: USER    NEWDPF tran0 -1.915484 10.490562 21.615805
DOCKED: USER    NEWDPF quaternion0 -0.241037 -0.725430 0.576739 -0.288139
DOCKED: USER    NEWDPF axisangle0 -0.251713 -0.757559 0.602283 -146.506902
DOCKED: USER    NEWDPF quat0 -0.251713 -0.757559 0.602283 -146.506902
DOCKED: USER    NEWDPF dihe0 110.49 129.01 144.91 33.20 119.23 81.57 -36.28 -156.18 142.21 -2.10 -24.17 129.65 -73.95 179.75 -174.59 -37.59 168.89 -88.48 -151.35 -3.63 10.54 135.69 -180.00 -105.26 
DOCKED: USER  keepresnum = 1 
DOCKED: USER  
DOCKED: REMARK  24 active torsions:
DOCKED: REMARK  status: ('A' for Active; 'I' for Inactive)
DOCKED: REMARK    1  A    between atoms: C_1  and  O_7 
DOCKED: REMARK    2  A    between atoms: C_2  and  O_12 
DOCKED: REMARK    3  A    between atoms: C_3  and  O_17 
DOCKED: REMARK    4  A    between atoms: C_4  and  O_22 
DOCKED: REMARK    5  A    between atoms: C_5  and  O_27 
DOCKED: REMARK    6  A    between atoms: C_6  and  O_32 
DOCKED: REMARK    7  A    between atoms: O_7  and  P_8 
DOCKED: REMARK    8  A    between atoms: P_8  and  O_10 
DOCKED: REMARK    9  A    between atoms: P_8  and  O_11 
DOCKED: REMARK   10  A    between atoms: O_12  and  P_13 
DOCKED: REMARK   11  A    between atoms: P_13  and  O_15 
DOCKED: REMARK   12  A    between atoms: P_13  and  O_16 
DOCKED: REMARK   13  A    between atoms: O_17  and  P_18 
DOCKED: REMARK   14  A    between atoms: P_18  and  O_20 
DOCKED: REMARK   15  A    between atoms: P_18  and  O_21 
DOCKED: REMARK   16  A    between atoms: O_22  and  P_23 
DOCKED: REMARK   17  A    between atoms: P_23  and  O_25 
DOCKED: REMARK   18  A    between atoms: P_23  and  O_26 
DOCKED: REMARK   19  A    between atoms: O_27  and  P_28 
DOCKED: REMARK   20  A    between atoms: P_28  and  O_30 
DOCKED: REMARK   21  A    between atoms: P_28  and  O_31 
DOCKED: REMARK   22  A    between atoms: O_32  and  P_33 
DOCKED: REMARK   23  A    between atoms: P_33  and  O_35 
DOCKED: REMARK   24  A    between atoms: P_33  and  O_36 
DOCKED: USER                              x       y       z     vdW  Elec       q    Type
DOCKED: USER                           _______ _______ _______ _____ _____    ______ ____
DOCKED: ROOT
DOCKED: ATOM      1  C   UNL d   1      -3.381  10.599  22.524 +0.01 -0.01    +0.194 C 
DOCKED: ATOM      2  C   UNL d   1      -2.242   9.830  23.196 +0.01 -0.01    +0.194 C 
DOCKED: ATOM      3  C   UNL d   1      -1.527   8.902  22.212 +0.00 -0.02    +0.194 C 
DOCKED: ATOM      4  C   UNL d   1      -1.072   9.611  20.939 -0.02 -0.04    +0.194 C 
DOCKED: ATOM      5  C   UNL d   1      -2.144  10.483  20.297 -0.04 -0.05    +0.194 C 
DOCKED: ATOM      6  C   UNL d   1      -2.901  11.366  21.291 -0.00 -0.02    +0.194 C 
DOCKED: ENDROOT
DOCKED: BRANCH   1   7
DOCKED: ATOM      7  O   UNL d   1      -3.880  11.561  23.456 +0.00 +0.01    -0.278 OA
DOCKED: BRANCH   7   8
DOCKED: ATOM      8  P   UNL d   1      -3.161  12.985  23.536 +0.01 -0.02    +0.473 P 
DOCKED: ATOM      9  O   UNL d   1      -1.760  13.014  23.034 +0.00 +0.02    -0.228 OA
DOCKED: BRANCH   8  10
DOCKED: ATOM     10  O   UNL d   1      -4.137  13.957  22.730 +0.00 +0.01    -0.303 OA
DOCKED: ATOM     11  H   UNL d   1      -4.386  13.541  21.884 +0.01 -0.00    +0.222 HD
DOCKED: ENDBRANCH   8  10
DOCKED: BRANCH   8  12
DOCKED: ATOM     12  O   UNL d   1      -3.371  13.471  25.034 +0.00 +0.01    -0.303 OA
DOCKED: ATOM     13  H   UNL d   1      -2.702  13.105  25.656 +0.00 -0.01    +0.222 HD
DOCKED: ENDBRANCH   8  12
DOCKED: ENDBRANCH   7   8
DOCKED: ENDBRANCH   1   7
DOCKED: BRANCH   2  14
DOCKED: ATOM     14  O   UNL d   1      -1.289  10.765  23.716 +0.00 +0.02    -0.278 OA
DOCKED: BRANCH  14  15
DOCKED: ATOM     15  P   UNL d   1      -0.882  10.592  25.255 +0.00 -0.02    +0.473 P 
DOCKED: ATOM     16  O   UNL d   1      -1.060  11.789  26.136 +0.00 +0.01    -0.228 OA
DOCKED: BRANCH  15  17
DOCKED: ATOM     17  O   UNL d   1      -1.732   9.336  25.742 +0.00 +0.01    -0.303 OA
DOCKED: ATOM     18  H   UNL d   1      -1.640   8.588  25.121 +0.00 -0.01    +0.222 HD
DOCKED: ENDBRANCH  15  17
DOCKED: BRANCH  15  19
DOCKED: ATOM     19  O   UNL d   1       0.588   9.986  25.211 +0.00 +0.02    -0.303 OA
DOCKED: ATOM     20  H   UNL d   1       0.747   9.486  24.389 +0.00 -0.01    +0.222 HD
DOCKED: ENDBRANCH  15  19
DOCKED: ENDBRANCH  14  15
DOCKED: ENDBRANCH   2  14
DOCKED: BRANCH   6  21
DOCKED: ATOM     21  O   UNL d   1      -4.063  11.843  20.617 -0.01 +0.01    -0.278 OA
DOCKED: BRANCH  21  22
DOCKED: ATOM     22  P   UNL d   1      -4.012  13.234  19.837 -0.04 +0.06    +0.473 P 
DOCKED: ATOM     23  O   UNL d   1      -5.232  14.091  19.845 -0.02 -0.05    -0.228 OA
DOCKED: BRANCH  22  24
DOCKED: ATOM     24  O   UNL d   1      -2.716  13.911  20.466 -0.02 +0.03    -0.303 OA
DOCKED: ATOM     25  H   UNL d   1      -1.962  13.273  20.381 +0.02 -0.06    +0.222 HD
DOCKED: ENDBRANCH  22  24
DOCKED: BRANCH  22  26
DOCKED: ATOM     26  O   UNL d   1      -3.481  12.779  18.395 -0.52 -0.16    -0.303 OA
DOCKED: ATOM     27  H   UNL d   1      -2.505  12.851  18.373 -0.55 -0.16    +0.222 HD
DOCKED: ENDBRANCH  22  26
DOCKED: ENDBRANCH  21  22
DOCKED: ENDBRANCH   6  21
DOCKED: BRANCH   3  28
DOCKED: ATOM     28  O   UNL d   1      -0.334   8.450  22.839 +0.00 +0.03    -0.278 OA
DOCKED: BRANCH  28  29
DOCKED: ATOM     29  P   UNL d   1       1.089   8.883  22.269 +0.01 -0.06    +0.473 P 
DOCKED: ATOM     30  O   UNL d   1       1.401   8.407  20.897 -0.03 +0.05    -0.228 OA
DOCKED: BRANCH  29  31
DOCKED: ATOM     31  O   UNL d   1       1.006  10.466  22.486 +0.00 +0.04    -0.303 OA
DOCKED: ATOM     32  H   UNL d   1       0.263  10.660  23.104 +0.00 -0.03    +0.222 HD
DOCKED: ENDBRANCH  29  31
DOCKED: BRANCH  29  33
DOCKED: ATOM     33  O   UNL d   1       2.071   8.419  23.433 +0.00 +0.02    -0.303 OA
DOCKED: ATOM     34  H   UNL d   1       2.269   9.193  24.013 +0.00 -0.01    +0.222 HD
DOCKED: ENDBRANCH  29  33
DOCKED: ENDBRANCH  28  29
DOCKED: ENDBRANCH   3  28
DOCKED: BRANCH   5  35
DOCKED: ATOM     35  O   UNL d   1      -1.452  11.353  19.405 -0.10 +0.21    -0.278 OA
DOCKED: BRANCH  35  36
DOCKED: ATOM     36  P   UNL d   1      -0.174  12.167  19.904 -0.03 -0.35    +0.473 P 
DOCKED: ATOM     37  O   UNL d   1       0.012  13.518  19.289 -0.11 +0.20    -0.228 OA
DOCKED: BRANCH  36  38
DOCKED: ATOM     38  O   UNL d   1      -0.398  12.191  21.480 -0.01 +0.08    -0.303 OA
DOCKED: ATOM     39  H   UNL d   1      -0.233  11.293  21.842 +0.01 -0.05    +0.222 HD
DOCKED: ENDBRANCH  36  38
DOCKED: BRANCH  36  40
DOCKED: ATOM     40  O   UNL d   1       1.001  11.113  19.700 -0.08 +0.22    -0.303 OA
DOCKED: ATOM     41  H   UNL d   1       0.743  10.217  20.010 +0.04 -0.11    +0.222 HD
DOCKED: ENDBRANCH  36  40
DOCKED: ENDBRANCH  35  36
DOCKED: ENDBRANCH   5  35
DOCKED: BRANCH   4  42
DOCKED: ATOM     42  O   UNL d   1      -0.737   8.590  19.992 -0.05 +0.07    -0.278 OA
DOCKED: BRANCH  42  43
DOCKED: ATOM     43  P   UNL d   1      -1.066   8.830  18.450 -0.18 -0.21    +0.473 P 
DOCKED: ATOM     44  O   UNL d   1      -2.386   9.434  18.115 -0.20 +0.08    -0.228 OA
DOCKED: BRANCH  43  45
DOCKED: ATOM     45  O   UNL d   1       0.183   9.683  17.955 -0.25 +0.34    -0.303 OA
DOCKED: ATOM     46  H   UNL d   1      -0.016  10.640  17.950 -0.38 -0.48    +0.222 HD
DOCKED: ENDBRANCH  43  45
DOCKED: BRANCH  43  47
DOCKED: ATOM     47  O   UNL d   1      -0.770   7.402  17.786 -0.13 +0.03    -0.303 OA
DOCKED: ATOM     48  H   UNL d   1       0.123   7.101  18.053 -0.20 -0.06    +0.222 HD
DOCKED: ENDBRANCH  43  47
DOCKED: ENDBRANCH  42  43
DOCKED: ENDBRANCH   4  42
DOCKED: TORSDOF 24
DOCKED: TER
DOCKED: ENDMDL
________________________________________________________________________________


	BEGINNING GENETIC ALGORITHM DOCKING 59 of 100
Run: 59 Seed: 999073104 1790980479 [ Run 59 of 100 GA/GALS ]
Beginning LAMARCKIAN GENETIC ALGORITHM (LGA), with a maximum of 25000000 energy evaluations.

Final-Value: -14.821


	FINAL GENETIC ALGORITHM DOCKED STATE
	_______________________________________________


Detailed state:  trans 14.508 12.110 -14.689 quatxyzw -0.598093 0.452001 0.367731 0.550231 center 0.035 0.082 -0.065 ntor 24 119.5792 116.7705 47.8691 -161.8701 67.6600 111.0788 -63.5382 84.3875 -3.4849 107.9170 -61.3504 -179.8111 153.2631 -134.1874 23.6684 -180.0000 -84.1477 6.5670 32.0175 -41.6926 164.5666 -28.4116 -0.3028 -17.3037
State:	 14.508  12.110 -14.689  -0.716  0.541  0.440 113.234    119.58  116.77   47.87 -161.87   67.66  111.08  -63.54   84.39   -3.48  107.92  -61.35 -179.81  153.26 -134.19   23.67 -180.00  -84.15    6.57   32.02  -41.69  164.57  -28.41   -0.30  -17.30

DOCKED: MODEL       59
DOCKED: USER    Run = 59
DOCKED: USER    DPF = D:/Protein_go_brrr/autodock/final/mut_Y35F/IHP/dock.dpf
DOCKED: USER  
DOCKED: USER    Estimated Free Energy of Binding    =   +3.11 kcal/mol  [=(1)+(2)+(3)-(4)]
DOCKED: USER    
DOCKED: USER    (1) Final Intermolecular Energy     =   -4.05 kcal/mol
DOCKED: USER        vdW + Hbond + desolv Energy     =   -3.89 kcal/mol
DOCKED: USER        Electrostatic Energy            =   -0.16 kcal/mol
DOCKED: USER    (2) Final Total Internal Energy     =  -10.77 kcal/mol
DOCKED: USER    (3) Torsional Free Energy           =   +7.16 kcal/mol
DOCKED: USER    (4) Unbound System's Energy  [=(2)] =  -10.77 kcal/mol
DOCKED: USER    
DOCKED: USER    
DOCKED: USER    NEWDPF move IHP_ideal_opt.pdbqt
DOCKED: USER    NEWDPF about 0.035000 0.082000 -0.065000
DOCKED: USER    NEWDPF tran0 14.507794 12.110132 -14.689236
DOCKED: USER    NEWDPF quaternion0 -0.598093 0.452001 0.367731 0.550231
DOCKED: USER    NEWDPF axisangle0 -0.716268 0.541310 0.440390 113.234218
DOCKED: USER    NEWDPF quat0 -0.716268 0.541310 0.440390 113.234218
DOCKED: USER    NEWDPF dihe0 119.58 116.77 47.87 -161.87 67.66 111.08 -63.54 84.39 -3.48 107.92 -61.35 -179.81 153.26 -134.19 23.67 -180.00 -84.15 6.57 32.02 -41.69 164.57 -28.41 -0.30 -17.30 
DOCKED: USER  keepresnum = 1 
DOCKED: USER  
DOCKED: REMARK  24 active torsions:
DOCKED: REMARK  status: ('A' for Active; 'I' for Inactive)
DOCKED: REMARK    1  A    between atoms: C_1  and  O_7 
DOCKED: REMARK    2  A    between atoms: C_2  and  O_12 
DOCKED: REMARK    3  A    between atoms: C_3  and  O_17 
DOCKED: REMARK    4  A    between atoms: C_4  and  O_22 
DOCKED: REMARK    5  A    between atoms: C_5  and  O_27 
DOCKED: REMARK    6  A    between atoms: C_6  and  O_32 
DOCKED: REMARK    7  A    between atoms: O_7  and  P_8 
DOCKED: REMARK    8  A    between atoms: P_8  and  O_10 
DOCKED: REMARK    9  A    between atoms: P_8  and  O_11 
DOCKED: REMARK   10  A    between atoms: O_12  and  P_13 
DOCKED: REMARK   11  A    between atoms: P_13  and  O_15 
DOCKED: REMARK   12  A    between atoms: P_13  and  O_16 
DOCKED: REMARK   13  A    between atoms: O_17  and  P_18 
DOCKED: REMARK   14  A    between atoms: P_18  and  O_20 
DOCKED: REMARK   15  A    between atoms: P_18  and  O_21 
DOCKED: REMARK   16  A    between atoms: O_22  and  P_23 
DOCKED: REMARK   17  A    between atoms: P_23  and  O_25 
DOCKED: REMARK   18  A    between atoms: P_23  and  O_26 
DOCKED: REMARK   19  A    between atoms: O_27  and  P_28 
DOCKED: REMARK   20  A    between atoms: P_28  and  O_30 
DOCKED: REMARK   21  A    between atoms: P_28  and  O_31 
DOCKED: REMARK   22  A    between atoms: O_32  and  P_33 
DOCKED: REMARK   23  A    between atoms: P_33  and  O_35 
DOCKED: REMARK   24  A    between atoms: P_33  and  O_36 
DOCKED: USER                              x       y       z     vdW  Elec       q    Type
DOCKED: USER                           _______ _______ _______ _____ _____    ______ ____
DOCKED: ROOT
DOCKED: ATOM      1  C   UNL d   1      14.289  10.655 -15.595 -0.09 -0.04    +0.194 C 
DOCKED: ATOM      2  C   UNL d   1      14.344  11.944 -16.417 -0.02 -0.02    +0.194 C 
DOCKED: ATOM      3  C   UNL d   1      13.531  13.066 -15.768 -0.01 -0.02    +0.194 C 
DOCKED: ATOM      4  C   UNL d   1      13.893  13.300 -14.303 -0.02 -0.02    +0.194 C 
DOCKED: ATOM      5  C   UNL d   1      13.963  12.027 -13.470 -0.08 -0.03    +0.194 C 
DOCKED: ATOM      6  C   UNL d   1      14.723  10.885 -14.147 -0.13 -0.05    +0.194 C 
DOCKED: ENDROOT
DOCKED: BRANCH   1   7
DOCKED: ATOM      7  O   UNL d   1      15.204   9.720 -16.171 -0.08 +0.09    -0.278 OA
DOCKED: BRANCH   7   8
DOCKED: ATOM      8  P   UNL d   1      14.664   8.727 -17.299 -0.06 -0.11    +0.473 P 
DOCKED: ATOM      9  O   UNL d   1      15.426   7.456 -17.439 -0.18 +0.05    -0.228 OA
DOCKED: BRANCH   8  10
DOCKED: ATOM     10  O   UNL d   1      13.132   8.501 -16.915 -0.06 +0.05    -0.303 OA
DOCKED: ATOM     11  H   UNL d   1      13.043   8.446 -15.945 +0.05 -0.05    +0.222 HD
DOCKED: ENDBRANCH   8  10
DOCKED: BRANCH   8  12
DOCKED: ATOM     12  O   UNL d   1      14.550   9.615 -18.612 -0.01 +0.04    -0.303 OA
DOCKED: ATOM     13  H   UNL d   1      15.425   9.855 -18.992 +0.02 -0.03    +0.222 HD
DOCKED: ENDBRANCH   8  12
DOCKED: ENDBRANCH   7   8
DOCKED: ENDBRANCH   1   7
DOCKED: BRANCH   2  14
DOCKED: ATOM     14  O   UNL d   1      15.707  12.372 -16.525 -0.01 +0.03    -0.278 OA
DOCKED: BRANCH  14  15
DOCKED: ATOM     15  P   UNL d   1      16.537  11.812 -17.775 -0.00 -0.05    +0.473 P 
DOCKED: ATOM     16  O   UNL d   1      17.054  10.412 -17.667 -0.04 +0.03    -0.228 OA
DOCKED: BRANCH  15  17
DOCKED: ATOM     17  O   UNL d   1      15.554  12.013 -19.013 -0.00 +0.03    -0.303 OA
DOCKED: ATOM     18  H   UNL d   1      14.659  11.680 -18.809 +0.01 -0.02    +0.222 HD
DOCKED: ENDBRANCH  15  17
DOCKED: BRANCH  15  19
DOCKED: ATOM     19  O   UNL d   1      17.635  12.929 -18.055 -0.00 +0.03    -0.303 OA
DOCKED: ATOM     20  H   UNL d   1      18.504  12.537 -18.259 +0.01 -0.02    +0.222 HD
DOCKED: ENDBRANCH  15  19
DOCKED: ENDBRANCH  14  15
DOCKED: ENDBRANCH   2  14
DOCKED: BRANCH   6  21
DOCKED: ATOM     21  O   UNL d   1      14.411   9.696 -13.423 -0.15 +0.10    -0.278 OA
DOCKED: BRANCH  21  22
DOCKED: ATOM     22  P   UNL d   1      12.903   9.178 -13.364 -0.22 -0.13    +0.473 P 
DOCKED: ATOM     23  O   UNL d   1      12.177   8.974 -14.651 -0.15 +0.04    -0.228 OA
DOCKED: BRANCH  22  24
DOCKED: ATOM     24  O   UNL d   1      13.042   7.874 -12.462 -0.93 +0.10    -0.303 OA
DOCKED: ATOM     25  H   UNL d   1      13.991   7.787 -12.191 -0.45 -0.18    +0.222 HD
DOCKED: ENDBRANCH  22  24
DOCKED: BRANCH  22  26
DOCKED: ATOM     26  O   UNL d   1      12.242  10.220 -12.341 -0.27 +0.08    -0.303 OA
DOCKED: ATOM     27  H   UNL d   1      12.672  10.129 -11.466 -0.30 -0.12    +0.222 HD
DOCKED: ENDBRANCH  22  26
DOCKED: ENDBRANCH  21  22
DOCKED: ENDBRANCH   6  21
DOCKED: BRANCH   3  28
DOCKED: ATOM     28  O   UNL d   1      13.861  14.277 -16.436 -0.00 +0.02    -0.278 OA
DOCKED: BRANCH  28  29
DOCKED: ATOM     29  P   UNL d   1      13.157  14.653 -17.814 -0.00 -0.03    +0.473 P 
DOCKED: ATOM     30  O   UNL d   1      13.084  16.104 -18.121 +0.00 +0.01    -0.228 OA
DOCKED: BRANCH  29  31
DOCKED: ATOM     31  O   UNL d   1      14.003  13.739 -18.819 -0.00 +0.02    -0.303 OA
DOCKED: ATOM     32  H   UNL d   1      14.791  13.392 -18.340 +0.00 -0.02    +0.222 HD
DOCKED: ENDBRANCH  29  31
DOCKED: BRANCH  29  33
DOCKED: ATOM     33  O   UNL d   1      11.774  13.870 -17.707 -0.00 +0.02    -0.303 OA
DOCKED: ATOM     34  H   UNL d   1      11.063  14.417 -18.121 +0.00 -0.01    +0.222 HD
DOCKED: ENDBRANCH  29  33
DOCKED: ENDBRANCH  28  29
DOCKED: ENDBRANCH   3  28
DOCKED: BRANCH   5  35
DOCKED: ATOM     35  O   UNL d   1      14.688  12.374 -12.292 -0.06 +0.05    -0.278 OA
DOCKED: BRANCH  35  36
DOCKED: ATOM     36  P   UNL d   1      14.112  11.998 -10.853 -0.07 -0.16    +0.473 P 
DOCKED: ATOM     37  O   UNL d   1      12.636  12.167 -10.684 -0.17 +0.08    -0.228 OA
DOCKED: BRANCH  36  38
DOCKED: ATOM     38  O   UNL d   1      14.624  10.500 -10.678 -0.16 +0.17    -0.303 OA
DOCKED: ATOM     39  H   UNL d   1      14.094   9.910 -11.256 -0.28 -0.14    +0.222 HD
DOCKED: ENDBRANCH  36  38
DOCKED: BRANCH  36  40
DOCKED: ATOM     40  O   UNL d   1      15.051  12.838  -9.881 -0.06 +0.08    -0.303 OA
DOCKED: ATOM     41  H   UNL d   1      14.918  13.806  -9.993 +0.05 -0.04    +0.222 HD
DOCKED: ENDBRANCH  36  40
DOCKED: ENDBRANCH  35  36
DOCKED: ENDBRANCH   5  35
DOCKED: BRANCH   4  42
DOCKED: ATOM     42  O   UNL d   1      12.855  14.112 -13.744 -0.01 +0.03    -0.278 OA
DOCKED: BRANCH  42  43
DOCKED: ATOM     43  P   UNL d   1      13.254  15.441 -12.957 +0.00 -0.05    +0.473 P 
DOCKED: ATOM     44  O   UNL d   1      14.154  16.405 -13.650 -0.00 +0.02    -0.228 OA
DOCKED: BRANCH  43  45
DOCKED: ATOM     45  O   UNL d   1      11.839  16.046 -12.553 -0.00 +0.02    -0.303 OA
DOCKED: ATOM     46  H   UNL d   1      11.796  17.007 -12.734 +0.01 -0.01    +0.222 HD
DOCKED: ENDBRANCH  43  45
DOCKED: BRANCH  43  47
DOCKED: ATOM     47  O   UNL d   1      13.786  14.887 -11.550 -0.01 +0.04    -0.303 OA
DOCKED: ATOM     48  H   UNL d   1      13.714  13.910 -11.540 +0.04 -0.04    +0.222 HD
DOCKED: ENDBRANCH  43  47
DOCKED: ENDBRANCH  42  43
DOCKED: ENDBRANCH   4  42
DOCKED: TORSDOF 24
DOCKED: TER
DOCKED: ENDMDL
________________________________________________________________________________


	BEGINNING GENETIC ALGORITHM DOCKING 60 of 100
Run: 60 Seed: 1510228748 1204991784 [ Run 60 of 100 GA/GALS ]
Beginning LAMARCKIAN GENETIC ALGORITHM (LGA), with a maximum of 25000000 energy evaluations.

Final-Value: -18.504


	FINAL GENETIC ALGORITHM DOCKED STATE
	_______________________________________________


Detailed state:  trans -5.814 19.194 15.631 quatxyzw 0.576164 -0.036220 0.016394 -0.816367 center 0.035 0.082 -0.065 ntor 24 -116.6495 -180.0000 119.5990 -48.5654 123.0759 121.4967 -117.4838 -26.4009 110.9160 1.5055 37.5640 -132.0029 -117.8923 90.3013 -136.6505 -155.2796 -142.6957 137.7016 42.7635 -9.6686 -7.4904 3.7699 -10.2460 -2.4747
State:	 -5.814  19.194  15.631   0.998 -0.063  0.028 -70.555   -116.65 -180.00  119.60  -48.57  123.08  121.50 -117.48  -26.40  110.92    1.51   37.56 -132.00 -117.89   90.30 -136.65 -155.28 -142.70  137.70   42.76   -9.67   -7.49    3.77  -10.25   -2.47

DOCKED: MODEL       60
DOCKED: USER    Run = 60
DOCKED: USER    DPF = D:/Protein_go_brrr/autodock/final/mut_Y35F/IHP/dock.dpf
DOCKED: USER  
DOCKED: USER    Estimated Free Energy of Binding    =   +3.34 kcal/mol  [=(1)+(2)+(3)-(4)]
DOCKED: USER    
DOCKED: USER    (1) Final Intermolecular Energy     =   -3.82 kcal/mol
DOCKED: USER        vdW + Hbond + desolv Energy     =   -3.31 kcal/mol
DOCKED: USER        Electrostatic Energy            =   -0.51 kcal/mol
DOCKED: USER    (2) Final Total Internal Energy     =  -14.69 kcal/mol
DOCKED: USER    (3) Torsional Free Energy           =   +7.16 kcal/mol
DOCKED: USER    (4) Unbound System's Energy  [=(2)] =  -14.69 kcal/mol
DOCKED: USER    
DOCKED: USER    
DOCKED: USER    NEWDPF move IHP_ideal_opt.pdbqt
DOCKED: USER    NEWDPF about 0.035000 0.082000 -0.065000
DOCKED: USER    NEWDPF tran0 -5.814457 19.193939 15.630527
DOCKED: USER    NEWDPF quaternion0 0.576164 -0.036220 0.016394 -0.816367
DOCKED: USER    NEWDPF axisangle0 0.997628 -0.062715 0.028387 -70.554540
DOCKED: USER    NEWDPF quat0 0.997628 -0.062715 0.028387 -70.554540
DOCKED: USER    NEWDPF dihe0 -116.65 -180.00 119.60 -48.57 123.08 121.50 -117.48 -26.40 110.92 1.51 37.56 -132.00 -117.89 90.30 -136.65 -155.28 -142.70 137.70 42.76 -9.67 -7.49 3.77 -10.25 -2.47 
DOCKED: USER  keepresnum = 1 
DOCKED: USER  
DOCKED: REMARK  24 active torsions:
DOCKED: REMARK  status: ('A' for Active; 'I' for Inactive)
DOCKED: REMARK    1  A    between atoms: C_1  and  O_7 
DOCKED: REMARK    2  A    between atoms: C_2  and  O_12 
DOCKED: REMARK    3  A    between atoms: C_3  and  O_17 
DOCKED: REMARK    4  A    between atoms: C_4  and  O_22 
DOCKED: REMARK    5  A    between atoms: C_5  and  O_27 
DOCKED: REMARK    6  A    between atoms: C_6  and  O_32 
DOCKED: REMARK    7  A    between atoms: O_7  and  P_8 
DOCKED: REMARK    8  A    between atoms: P_8  and  O_10 
DOCKED: REMARK    9  A    between atoms: P_8  and  O_11 
DOCKED: REMARK   10  A    between atoms: O_12  and  P_13 
DOCKED: REMARK   11  A    between atoms: P_13  and  O_15 
DOCKED: REMARK   12  A    between atoms: P_13  and  O_16 
DOCKED: REMARK   13  A    between atoms: O_17  and  P_18 
DOCKED: REMARK   14  A    between atoms: P_18  and  O_20 
DOCKED: REMARK   15  A    between atoms: P_18  and  O_21 
DOCKED: REMARK   16  A    between atoms: O_22  and  P_23 
DOCKED: REMARK   17  A    between atoms: P_23  and  O_25 
DOCKED: REMARK   18  A    between atoms: P_23  and  O_26 
DOCKED: REMARK   19  A    between atoms: O_27  and  P_28 
DOCKED: REMARK   20  A    between atoms: P_28  and  O_30 
DOCKED: REMARK   21  A    between atoms: P_28  and  O_31 
DOCKED: REMARK   22  A    between atoms: O_32  and  P_33 
DOCKED: REMARK   23  A    between atoms: P_33  and  O_35 
DOCKED: REMARK   24  A    between atoms: P_33  and  O_36 
DOCKED: USER                              x       y       z     vdW  Elec       q    Type
DOCKED: USER                           _______ _______ _______ _____ _____    ______ ____
DOCKED: ROOT
DOCKED: ATOM      1  C   UNL d   1      -4.536  18.132  15.158 -0.05 -0.01    +0.194 C 
DOCKED: ATOM      2  C   UNL d   1      -5.711  18.229  14.182 -0.06 -0.05    +0.194 C 
DOCKED: ATOM      3  C   UNL d   1      -7.056  18.209  14.911 -0.02 -0.05    +0.194 C 
DOCKED: ATOM      4  C   UNL d   1      -7.149  19.243  16.030 +0.00 -0.03    +0.194 C 
DOCKED: ATOM      5  C   UNL d   1      -5.944  19.260  16.961 +0.00 -0.01    +0.194 C 
DOCKED: ATOM      6  C   UNL d   1      -4.598  19.217  16.233 +0.00 -0.02    +0.194 C 
DOCKED: ENDROOT
DOCKED: BRANCH   1   7
DOCKED: ATOM      7  O   UNL d   1      -3.327  18.331  14.422 -0.05 +0.08    -0.278 OA
DOCKED: BRANCH   7   8
DOCKED: ATOM      8  P   UNL d   1      -2.736  17.103  13.588 -0.16 -0.22    +0.473 P 
DOCKED: ATOM      9  O   UNL d   1      -2.259  15.955  14.408 -0.45 -0.01    -0.228 OA
DOCKED: BRANCH   8  10
DOCKED: ATOM     10  O   UNL d   1      -3.914  16.712  12.586 -0.19 +0.12    -0.303 OA
DOCKED: ATOM     11  H   UNL d   1      -3.861  17.268  11.787 -0.40 -0.19    +0.222 HD
DOCKED: ENDBRANCH   8  10
DOCKED: BRANCH   8  12
DOCKED: ATOM     12  O   UNL d   1      -1.665  17.747  12.607 -0.11 +0.46    -0.303 OA
DOCKED: ATOM     13  H   UNL d   1      -0.820  17.244  12.575 -0.41 -0.70    +0.222 HD
DOCKED: ENDBRANCH   8  12
DOCKED: ENDBRANCH   7   8
DOCKED: ENDBRANCH   1   7
DOCKED: BRANCH   2  14
DOCKED: ATOM     14  O   UNL d   1      -5.608  19.455  13.447 -0.02 +0.12    -0.278 OA
DOCKED: BRANCH  14  15
DOCKED: ATOM     15  P   UNL d   1      -5.529  19.329  11.853 -0.10 -0.33    +0.473 P 
DOCKED: ATOM     16  O   UNL d   1      -6.184  20.417  11.060 -0.10 +0.16    -0.228 OA
DOCKED: BRANCH  15  17
DOCKED: ATOM     17  O   UNL d   1      -3.971  19.198  11.550 -0.10 +0.20    -0.303 OA
DOCKED: ATOM     18  H   UNL d   1      -3.490  18.853  12.327 +0.07 -0.14    +0.222 HD
DOCKED: ENDBRANCH  15  17
DOCKED: BRANCH  15  19
DOCKED: ATOM     19  O   UNL d   1      -6.039  17.854  11.545 -0.24 +0.36    -0.303 OA
DOCKED: ATOM     20  H   UNL d   1      -5.311  17.273  11.260 -0.29 -0.27    +0.222 HD
DOCKED: ENDBRANCH  15  19
DOCKED: ENDBRANCH  14  15
DOCKED: ENDBRANCH   2  14
DOCKED: BRANCH   6  21
DOCKED: ATOM     21  O   UNL d   1      -3.611  18.895  17.210 +0.00 +0.02    -0.278 OA
DOCKED: BRANCH  21  22
DOCKED: ATOM     22  P   UNL d   1      -2.557  20.002  17.667 +0.02 -0.06    +0.473 P 
DOCKED: ATOM     23  O   UNL d   1      -1.151  19.876  17.187 -0.00 +0.05    -0.228 OA
DOCKED: BRANCH  22  24
DOCKED: ATOM     24  O   UNL d   1      -3.291  21.347  17.237 +0.00 +0.04    -0.303 OA
DOCKED: ATOM     25  H   UNL d   1      -4.176  21.372  17.683 +0.00 -0.02    +0.222 HD
DOCKED: ENDBRANCH  22  24
DOCKED: BRANCH  22  26
DOCKED: ATOM     26  O   UNL d   1      -2.760  20.008  19.257 +0.00 +0.02    -0.303 OA
DOCKED: ATOM     27  H   UNL d   1      -3.710  20.130  19.460 +0.00 -0.01    +0.222 HD
DOCKED: ENDBRANCH  22  26
DOCKED: ENDBRANCH  21  22
DOCKED: ENDBRANCH   6  21
DOCKED: BRANCH   3  28
DOCKED: ATOM     28  O   UNL d   1      -8.057  18.578  13.971 -0.05 +0.16    -0.278 OA
DOCKED: BRANCH  28  29
DOCKED: ATOM     29  P   UNL d   1      -9.172  17.530  13.530 -0.01 -0.40    +0.473 P 
DOCKED: ATOM     30  O   UNL d   1     -10.182  18.037  12.565 -0.10 +0.30    -0.228 OA
DOCKED: BRANCH  29  31
DOCKED: ATOM     31  O   UNL d   1      -8.242  16.323  13.040 -0.11 +0.31    -0.303 OA
DOCKED: ATOM     32  H   UNL d   1      -7.742  16.615  12.243 -0.44 -0.45    +0.222 HD
DOCKED: ENDBRANCH  29  31
DOCKED: BRANCH  29  33
DOCKED: ATOM     33  O   UNL d   1      -9.715  17.009  14.933 -0.01 +0.09    -0.303 OA
DOCKED: ATOM     34  H   UNL d   1      -9.665  17.746  15.590 +0.02 -0.05    +0.222 HD
DOCKED: ENDBRANCH  29  33
DOCKED: ENDBRANCH  28  29
DOCKED: ENDBRANCH   3  28
DOCKED: BRANCH   5  35
DOCKED: ATOM     35  O   UNL d   1      -6.007  20.505  17.654 +0.00 +0.02    -0.278 OA
DOCKED: BRANCH  35  36
DOCKED: ATOM     36  P   UNL d   1      -6.115  20.535  19.245 +0.00 -0.03    +0.473 P 
DOCKED: ATOM     37  O   UNL d   1      -7.493  20.725  19.795 +0.00 +0.01    -0.228 OA
DOCKED: BRANCH  36  38
DOCKED: ATOM     38  O   UNL d   1      -5.435  19.151  19.644 +0.00 +0.01    -0.303 OA
DOCKED: ATOM     39  H   UNL d   1      -4.647  19.005  19.078 +0.01 -0.00    +0.222 HD
DOCKED: ENDBRANCH  36  38
DOCKED: BRANCH  36  40
DOCKED: ATOM     40  O   UNL d   1      -5.025  21.625  19.638 +0.00 +0.02    -0.303 OA
DOCKED: ATOM     41  H   UNL d   1      -4.213  21.543  19.089 +0.00 -0.02    +0.222 HD
DOCKED: ENDBRANCH  36  40
DOCKED: ENDBRANCH  35  36
DOCKED: ENDBRANCH   5  35
DOCKED: BRANCH   4  42
DOCKED: ATOM     42  O   UNL d   1      -8.289  18.894  16.823 +0.00 +0.03    -0.278 OA
DOCKED: BRANCH  42  43
DOCKED: ATOM     43  P   UNL d   1      -9.544  19.877  16.844 +0.01 -0.06    +0.473 P 
DOCKED: ATOM     44  O   UNL d   1     -10.680  19.522  17.740 +0.00 +0.02    -0.228 OA
DOCKED: BRANCH  43  45
DOCKED: ATOM     45  O   UNL d   1      -8.878  21.287  17.164 +0.00 +0.03    -0.303 OA
DOCKED: ATOM     46  H   UNL d   1      -8.122  21.194  17.777 +0.00 -0.02    +0.222 HD
DOCKED: ENDBRANCH  43  45
DOCKED: BRANCH  43  47
DOCKED: ATOM     47  O   UNL d   1      -9.911  20.035  15.291 +0.00 +0.07    -0.303 OA
DOCKED: ATOM     48  H   UNL d   1      -9.924  19.151  14.871 +0.01 -0.07    +0.222 HD
DOCKED: ENDBRANCH  43  47
DOCKED: ENDBRANCH  42  43
DOCKED: ENDBRANCH   4  42
DOCKED: TORSDOF 24
DOCKED: TER
DOCKED: ENDMDL
________________________________________________________________________________


	BEGINNING GENETIC ALGORITHM DOCKING 61 of 100
Run: 61 Seed: 988944038 736460059 [ Run 61 of 100 GA/GALS ]
Beginning LAMARCKIAN GENETIC ALGORITHM (LGA), with a maximum of 25000000 energy evaluations.

Final-Value: -18.911


	FINAL GENETIC ALGORITHM DOCKED STATE
	_______________________________________________


Detailed state:  trans 13.187 12.760 5.587 quatxyzw -0.769062 0.101133 -0.512213 0.368718 center 0.035 0.082 -0.065 ntor 24 71.9530 125.1120 121.6908 132.9253 -7.8248 173.7046 -151.6231 -68.7500 86.5775 54.6746 -158.0396 140.1562 -15.1270 95.9408 -179.2292 -156.6935 110.6446 167.0024 48.8757 0.5242 170.5727 0.3433 -9.7006 174.2695
State:	 13.187  12.760   5.587  -0.827  0.109 -0.551 136.727     71.95  125.11  121.69  132.93   -7.82  173.70 -151.62  -68.75   86.58   54.67 -158.04  140.16  -15.13   95.94 -179.23 -156.69  110.64  167.00   48.88    0.52  170.57    0.34   -9.70  174.27

DOCKED: MODEL       61
DOCKED: USER    Run = 61
DOCKED: USER    DPF = D:/Protein_go_brrr/autodock/final/mut_Y35F/IHP/dock.dpf
DOCKED: USER  
DOCKED: USER    Estimated Free Energy of Binding    =   +3.28 kcal/mol  [=(1)+(2)+(3)-(4)]
DOCKED: USER    
DOCKED: USER    (1) Final Intermolecular Energy     =   -3.88 kcal/mol
DOCKED: USER        vdW + Hbond + desolv Energy     =   -3.84 kcal/mol
DOCKED: USER        Electrostatic Energy            =   -0.04 kcal/mol
DOCKED: USER    (2) Final Total Internal Energy     =  -15.03 kcal/mol
DOCKED: USER    (3) Torsional Free Energy           =   +7.16 kcal/mol
DOCKED: USER    (4) Unbound System's Energy  [=(2)] =  -15.03 kcal/mol
DOCKED: USER    
DOCKED: USER    
DOCKED: USER    NEWDPF move IHP_ideal_opt.pdbqt
DOCKED: USER    NEWDPF about 0.035000 0.082000 -0.065000
DOCKED: USER    NEWDPF tran0 13.186843 12.760166 5.586558
DOCKED: USER    NEWDPF quaternion0 -0.769062 0.101133 -0.512213 0.368718
DOCKED: USER    NEWDPF axisangle0 -0.827357 0.108799 -0.551038 136.726833
DOCKED: USER    NEWDPF quat0 -0.827357 0.108799 -0.551038 136.726833
DOCKED: USER    NEWDPF dihe0 71.95 125.11 121.69 132.93 -7.82 173.70 -151.62 -68.75 86.58 54.67 -158.04 140.16 -15.13 95.94 -179.23 -156.69 110.64 167.00 48.88 0.52 170.57 0.34 -9.70 174.27 
DOCKED: USER  keepresnum = 1 
DOCKED: USER  
DOCKED: REMARK  24 active torsions:
DOCKED: REMARK  status: ('A' for Active; 'I' for Inactive)
DOCKED: REMARK    1  A    between atoms: C_1  and  O_7 
DOCKED: REMARK    2  A    between atoms: C_2  and  O_12 
DOCKED: REMARK    3  A    between atoms: C_3  and  O_17 
DOCKED: REMARK    4  A    between atoms: C_4  and  O_22 
DOCKED: REMARK    5  A    between atoms: C_5  and  O_27 
DOCKED: REMARK    6  A    between atoms: C_6  and  O_32 
DOCKED: REMARK    7  A    between atoms: O_7  and  P_8 
DOCKED: REMARK    8  A    between atoms: P_8  and  O_10 
DOCKED: REMARK    9  A    between atoms: P_8  and  O_11 
DOCKED: REMARK   10  A    between atoms: O_12  and  P_13 
DOCKED: REMARK   11  A    between atoms: P_13  and  O_15 
DOCKED: REMARK   12  A    between atoms: P_13  and  O_16 
DOCKED: REMARK   13  A    between atoms: O_17  and  P_18 
DOCKED: REMARK   14  A    between atoms: P_18  and  O_20 
DOCKED: REMARK   15  A    between atoms: P_18  and  O_21 
DOCKED: REMARK   16  A    between atoms: O_22  and  P_23 
DOCKED: REMARK   17  A    between atoms: P_23  and  O_25 
DOCKED: REMARK   18  A    between atoms: P_23  and  O_26 
DOCKED: REMARK   19  A    between atoms: O_27  and  P_28 
DOCKED: REMARK   20  A    between atoms: P_28  and  O_30 
DOCKED: REMARK   21  A    between atoms: P_28  and  O_31 
DOCKED: REMARK   22  A    between atoms: O_32  and  P_33 
DOCKED: REMARK   23  A    between atoms: P_33  and  O_35 
DOCKED: REMARK   24  A    between atoms: P_33  and  O_36 
DOCKED: USER                              x       y       z     vdW  Elec       q    Type
DOCKED: USER                           _______ _______ _______ _____ _____    ______ ____
DOCKED: ROOT
DOCKED: ATOM      1  C   UNL d   1      14.794  13.136   6.095 -0.02 +0.01    +0.194 C 
DOCKED: ATOM      2  C   UNL d   1      14.392  13.676   4.721 -0.05 -0.00    +0.194 C 
DOCKED: ATOM      3  C   UNL d   1      13.623  12.633   3.906 -0.13 -0.01    +0.194 C 
DOCKED: ATOM      4  C   UNL d   1      12.439  12.035   4.661 -0.12 -0.00    +0.194 C 
DOCKED: ATOM      5  C   UNL d   1      12.768  11.588   6.079 -0.07 +0.01    +0.194 C 
DOCKED: ATOM      6  C   UNL d   1      13.590  12.605   6.874 -0.04 +0.01    +0.194 C 
DOCKED: ENDROOT
DOCKED: BRANCH   1   7
DOCKED: ATOM      7  O   UNL d   1      15.350  14.214   6.852 -0.00 -0.01    -0.278 OA
DOCKED: BRANCH   7   8
DOCKED: ATOM      8  P   UNL d   1      16.812  14.734   6.473 +0.00 +0.01    +0.473 P 
DOCKED: ATOM      9  O   UNL d   1      17.128  14.726   5.019 -0.02 +0.00    -0.228 OA
DOCKED: BRANCH   8  10
DOCKED: ATOM     10  O   UNL d   1      16.887  16.188   7.125 +0.00 +0.00    -0.303 OA
DOCKED: ATOM     11  H   UNL d   1      16.511  16.843   6.507 +0.00 -0.01    +0.222 HD
DOCKED: ENDBRANCH   8  10
DOCKED: BRANCH   8  12
DOCKED: ATOM     12  O   UNL d   1      17.799  13.903   7.401 -0.00 -0.02    -0.303 OA
DOCKED: ATOM     13  H   UNL d   1      17.975  12.996   7.062 +0.01 +0.02    +0.222 HD
DOCKED: ENDBRANCH   8  12
DOCKED: ENDBRANCH   7   8
DOCKED: ENDBRANCH   1   7
DOCKED: BRANCH   2  14
DOCKED: ATOM     14  O   UNL d   1      13.556  14.826   4.897 -0.02 +0.02    -0.278 OA
DOCKED: BRANCH  14  15
DOCKED: ATOM     15  P   UNL d   1      13.923  16.118   4.026 +0.02 -0.08    +0.473 P 
DOCKED: ATOM     16  O   UNL d   1      12.793  17.034   3.673 -0.02 +0.05    -0.228 OA
DOCKED: BRANCH  15  17
DOCKED: ATOM     17  O   UNL d   1      15.064  16.843   4.870 +0.00 +0.04    -0.303 OA
DOCKED: ATOM     18  H   UNL d   1      15.546  16.204   5.430 +0.01 -0.02    +0.222 HD
DOCKED: ENDBRANCH  15  17
DOCKED: BRANCH  15  19
DOCKED: ATOM     19  O   UNL d   1      14.752  15.545   2.795 -0.04 +0.09    -0.303 OA
DOCKED: ATOM     20  H   UNL d   1      14.178  15.078   2.160 +0.07 -0.08    +0.222 HD
DOCKED: ENDBRANCH  15  19
DOCKED: ENDBRANCH  14  15
DOCKED: ENDBRANCH   2  14
DOCKED: BRANCH   6  21
DOCKED: ATOM     21  O   UNL d   1      14.100  11.921   8.016 -0.01 -0.03    -0.278 OA
DOCKED: BRANCH  21  22
DOCKED: ATOM     22  P   UNL d   1      15.200  10.780   7.831 +0.00 +0.07    +0.473 P 
DOCKED: ATOM     23  O   UNL d   1      15.216   9.652   8.806 +0.00 -0.04    -0.228 OA
DOCKED: BRANCH  22  24
DOCKED: ATOM     24  O   UNL d   1      14.970  10.350   6.315 -0.04 -0.06    -0.303 OA
DOCKED: ATOM     25  H   UNL d   1      14.134   9.820   6.269 +0.04 +0.04    +0.222 HD
DOCKED: ENDBRANCH  22  24
DOCKED: BRANCH  22  26
DOCKED: ATOM     26  O   UNL d   1      16.548  11.642   7.730 -0.00 -0.04    -0.303 OA
DOCKED: ATOM     27  H   UNL d   1      16.328  12.593   7.801 +0.01 +0.02    +0.222 HD
DOCKED: ENDBRANCH  22  26
DOCKED: ENDBRANCH  21  22
DOCKED: ENDBRANCH   6  21
DOCKED: BRANCH   3  28
DOCKED: ATOM     28  O   UNL d   1      13.058  13.299   2.784 -0.14 +0.04    -0.278 OA
DOCKED: BRANCH  28  29
DOCKED: ATOM     29  P   UNL d   1      13.600  13.002   1.316 -0.27 -0.07    +0.473 P 
DOCKED: ATOM     30  O   UNL d   1      12.894  13.709   0.217 -0.89 +0.07    -0.228 OA
DOCKED: BRANCH  29  31
DOCKED: ATOM     31  O   UNL d   1      15.152  13.339   1.517 -0.45 +0.01    -0.303 OA
DOCKED: ATOM     32  H   UNL d   1      15.325  14.243   1.166 +0.06 -0.08    +0.222 HD
DOCKED: ENDBRANCH  29  31
DOCKED: BRANCH  29  33
DOCKED: ATOM     33  O   UNL d   1      13.589  11.410   1.271 -0.71 +0.02    -0.303 OA
DOCKED: ATOM     34  H   UNL d   1      13.412  11.065   2.181 +0.03 -0.03    +0.222 HD
DOCKED: ENDBRANCH  29  33
DOCKED: ENDBRANCH  28  29
DOCKED: ENDBRANCH   3  28
DOCKED: BRANCH   5  35
DOCKED: ATOM     35  O   UNL d   1      11.513  11.453   6.743 +0.02 -0.03    -0.278 OA
DOCKED: BRANCH  35  36
DOCKED: ATOM     36  P   UNL d   1      11.081  10.050   7.367 -0.05 +0.09    +0.473 P 
DOCKED: ATOM     37  O   UNL d   1      10.099  10.120   8.494 -0.21 -0.05    -0.228 OA
DOCKED: BRANCH  36  38
DOCKED: ATOM     38  O   UNL d   1      10.549   9.272   6.083 -0.12 -0.05    -0.303 OA
DOCKED: ATOM     39  H   UNL d   1      10.869   9.729   5.276 +0.09 +0.02    +0.222 HD
DOCKED: ENDBRANCH  36  38
DOCKED: BRANCH  36  40
DOCKED: ATOM     40  O   UNL d   1      12.484   9.367   7.675 -0.02 -0.07    -0.303 OA
DOCKED: ATOM     41  H   UNL d   1      13.224  10.012   7.615 +0.03 +0.04    +0.222 HD
DOCKED: ENDBRANCH  36  40
DOCKED: ENDBRANCH  35  36
DOCKED: ENDBRANCH   5  35
DOCKED: BRANCH   4  42
DOCKED: ATOM     42  O   UNL d   1      12.032  10.869   3.936 -0.15 +0.02    -0.278 OA
DOCKED: BRANCH  42  43
DOCKED: ATOM     43  P   UNL d   1      13.051   9.650   3.801 -0.17 +0.02    +0.473 P 
DOCKED: ATOM     44  O   UNL d   1      12.996   8.844   2.549 -0.37 +0.00    -0.228 OA
DOCKED: BRANCH  43  45
DOCKED: ATOM     45  O   UNL d   1      14.459  10.341   4.069 -0.17 -0.09    -0.303 OA
DOCKED: ATOM     46  H   UNL d   1      14.970   9.861   4.750 +0.07 +0.09    +0.222 HD
DOCKED: ENDBRANCH  43  45
DOCKED: BRANCH  43  47
DOCKED: ATOM     47  O   UNL d   1      12.826   8.832   5.161 -0.07 -0.05    -0.303 OA
DOCKED: ATOM     48  H   UNL d   1      12.729   9.463   5.904 +0.06 +0.03    +0.222 HD
DOCKED: ENDBRANCH  43  47
DOCKED: ENDBRANCH  42  43
DOCKED: ENDBRANCH   4  42
DOCKED: TORSDOF 24
DOCKED: TER
DOCKED: ENDMDL
________________________________________________________________________________


	BEGINNING GENETIC ALGORITHM DOCKING 62 of 100
Run: 62 Seed: 181324997 602150471 [ Run 62 of 100 GA/GALS ]
Beginning LAMARCKIAN GENETIC ALGORITHM (LGA), with a maximum of 25000000 energy evaluations.

Final-Value: -16.201


	FINAL GENETIC ALGORITHM DOCKED STATE
	_______________________________________________


Detailed state:  trans -7.185 18.861 -2.522 quatxyzw 0.748024 -0.310651 0.323223 0.489370 center 0.035 0.082 -0.065 ntor 24 3.7521 -168.3859 153.3025 -6.0480 -25.1929 -175.5881 -91.4217 9.7059 60.9840 75.7963 166.3651 120.4823 -41.2290 166.0016 -39.9260 169.5450 112.4245 -157.7652 -34.9732 5.0059 2.1862 3.8886 -13.1355 13.2479
State:	 -7.185  18.861  -2.522   0.858 -0.356  0.371 121.402      3.75 -168.39  153.30   -6.05  -25.19 -175.59  -91.42    9.71   60.98   75.80  166.37  120.48  -41.23  166.00  -39.93  169.54  112.42 -157.77  -34.97    5.01    2.19    3.89  -13.14   13.25

DOCKED: MODEL       62
DOCKED: USER    Run = 62
DOCKED: USER    DPF = D:/Protein_go_brrr/autodock/final/mut_Y35F/IHP/dock.dpf
DOCKED: USER  
DOCKED: USER    Estimated Free Energy of Binding    =   +4.82 kcal/mol  [=(1)+(2)+(3)-(4)]
DOCKED: USER    
DOCKED: USER    (1) Final Intermolecular Energy     =   -2.34 kcal/mol
DOCKED: USER        vdW + Hbond + desolv Energy     =   -1.97 kcal/mol
DOCKED: USER        Electrostatic Energy            =   -0.37 kcal/mol
DOCKED: USER    (2) Final Total Internal Energy     =  -13.86 kcal/mol
DOCKED: USER    (3) Torsional Free Energy           =   +7.16 kcal/mol
DOCKED: USER    (4) Unbound System's Energy  [=(2)] =  -13.86 kcal/mol
DOCKED: USER    
DOCKED: USER    
DOCKED: USER    NEWDPF move IHP_ideal_opt.pdbqt
DOCKED: USER    NEWDPF about 0.035000 0.082000 -0.065000
DOCKED: USER    NEWDPF tran0 -7.184758 18.860942 -2.521924
DOCKED: USER    NEWDPF quaternion0 0.748024 -0.310651 0.323223 0.489370
DOCKED: USER    NEWDPF axisangle0 0.857751 -0.356220 0.370636 121.401590
DOCKED: USER    NEWDPF quat0 0.857751 -0.356220 0.370636 121.401590
DOCKED: USER    NEWDPF dihe0 3.75 -168.39 153.30 -6.05 -25.19 -175.59 -91.42 9.71 60.98 75.80 166.37 120.48 -41.23 166.00 -39.93 169.54 112.42 -157.77 -34.97 5.01 2.19 3.89 -13.14 13.25 
DOCKED: USER  keepresnum = 1 
DOCKED: USER  
DOCKED: REMARK  24 active torsions:
DOCKED: REMARK  status: ('A' for Active; 'I' for Inactive)
DOCKED: REMARK    1  A    between atoms: C_1  and  O_7 
DOCKED: REMARK    2  A    between atoms: C_2  and  O_12 
DOCKED: REMARK    3  A    between atoms: C_3  and  O_17 
DOCKED: REMARK    4  A    between atoms: C_4  and  O_22 
DOCKED: REMARK    5  A    between atoms: C_5  and  O_27 
DOCKED: REMARK    6  A    between atoms: C_6  and  O_32 
DOCKED: REMARK    7  A    between atoms: O_7  and  P_8 
DOCKED: REMARK    8  A    between atoms: P_8  and  O_10 
DOCKED: REMARK    9  A    between atoms: P_8  and  O_11 
DOCKED: REMARK   10  A    between atoms: O_12  and  P_13 
DOCKED: REMARK   11  A    between atoms: P_13  and  O_15 
DOCKED: REMARK   12  A    between atoms: P_13  and  O_16 
DOCKED: REMARK   13  A    between atoms: O_17  and  P_18 
DOCKED: REMARK   14  A    between atoms: P_18  and  O_20 
DOCKED: REMARK   15  A    between atoms: P_18  and  O_21 
DOCKED: REMARK   16  A    between atoms: O_22  and  P_23 
DOCKED: REMARK   17  A    between atoms: P_23  and  O_25 
DOCKED: REMARK   18  A    between atoms: P_23  and  O_26 
DOCKED: REMARK   19  A    between atoms: O_27  and  P_28 
DOCKED: REMARK   20  A    between atoms: P_28  and  O_30 
DOCKED: REMARK   21  A    between atoms: P_28  and  O_31 
DOCKED: REMARK   22  A    between atoms: O_32  and  P_33 
DOCKED: REMARK   23  A    between atoms: P_33  and  O_35 
DOCKED: REMARK   24  A    between atoms: P_33  and  O_36 
DOCKED: USER                              x       y       z     vdW  Elec       q    Type
DOCKED: USER                           _______ _______ _______ _____ _____    ______ ____
DOCKED: ROOT
DOCKED: ATOM      1  C   UNL d   1      -5.681  18.594  -1.715 -0.02 -0.06    +0.194 C 
DOCKED: ATOM      2  C   UNL d   1      -6.598  19.636  -1.074 -0.00 -0.04    +0.194 C 
DOCKED: ATOM      3  C   UNL d   1      -7.232  20.555  -2.122 +0.00 -0.03    +0.194 C 
DOCKED: ATOM      4  C   UNL d   1      -7.923  19.793  -3.250 +0.00 -0.03    +0.194 C 
DOCKED: ATOM      5  C   UNL d   1      -7.086  18.667  -3.842 +0.00 -0.04    +0.194 C 
DOCKED: ATOM      6  C   UNL d   1      -6.402  17.786  -2.795 -0.01 -0.06    +0.194 C 
DOCKED: ENDROOT
DOCKED: BRANCH   1   7
DOCKED: ATOM      7  O   UNL d   1      -5.270  17.676  -0.699 -0.05 +0.11    -0.278 OA
DOCKED: BRANCH   7   8
DOCKED: ATOM      8  P   UNL d   1      -3.928  16.840  -0.929 -0.12 -0.38    +0.473 P 
DOCKED: ATOM      9  O   UNL d   1      -3.101  17.280  -2.086 -0.15 +0.26    -0.228 OA
DOCKED: BRANCH   8  10
DOCKED: ATOM     10  O   UNL d   1      -3.162  16.947   0.467 -0.15 +0.15    -0.303 OA
DOCKED: ATOM     11  H   UNL d   1      -2.203  16.842   0.322 +0.09 -0.12    +0.222 HD
DOCKED: ENDBRANCH   8  10
DOCKED: BRANCH   8  12
DOCKED: ATOM     12  O   UNL d   1      -4.386  15.319  -0.941 -0.22 +0.34    -0.303 OA
DOCKED: ATOM     13  H   UNL d   1      -3.852  14.760  -1.550 -0.44 -0.54    +0.222 HD
DOCKED: ENDBRANCH   8  12
DOCKED: ENDBRANCH   7   8
DOCKED: ENDBRANCH   1   7
DOCKED: BRANCH   2  14
DOCKED: ATOM     14  O   UNL d   1      -7.646  18.963  -0.364 -0.01 +0.05    -0.278 OA
DOCKED: BRANCH  14  15
DOCKED: ATOM     15  P   UNL d   1      -8.010  19.536   1.086 -0.01 -0.08    +0.473 P 
DOCKED: ATOM     16  O   UNL d   1      -8.271  18.527   2.161 -0.10 +0.05    -0.228 OA
DOCKED: BRANCH  15  17
DOCKED: ATOM     17  O   UNL d   1      -6.799  20.510   1.434 -0.01 +0.06    -0.303 OA
DOCKED: ATOM     18  H   UNL d   1      -6.700  21.205   0.755 +0.01 -0.03    +0.222 HD
DOCKED: ENDBRANCH  15  17
DOCKED: BRANCH  15  19
DOCKED: ATOM     19  O   UNL d   1      -9.187  20.572   0.819 -0.00 +0.04    -0.303 OA
DOCKED: ATOM     20  H   UNL d   1      -8.882  21.337   0.295 +0.00 -0.03    +0.222 HD
DOCKED: ENDBRANCH  15  19
DOCKED: ENDBRANCH  14  15
DOCKED: ENDBRANCH   2  14
DOCKED: BRANCH   6  21
DOCKED: ATOM     21  O   UNL d   1      -5.411  17.024  -3.480 -0.04 +0.15    -0.278 OA
DOCKED: BRANCH  21  22
DOCKED: ATOM     22  P   UNL d   1      -5.713  15.509  -3.880 -0.08 -0.30    +0.473 P 
DOCKED: ATOM     23  O   UNL d   1      -6.941  14.866  -3.331 -0.06 +0.11    -0.228 OA
DOCKED: BRANCH  22  24
DOCKED: ATOM     24  O   UNL d   1      -5.647  15.574  -5.469 -0.04 +0.15    -0.303 OA
DOCKED: ATOM     25  H   UNL d   1      -6.560  15.757  -5.808 +0.03 -0.08    +0.222 HD
DOCKED: ENDBRANCH  22  24
DOCKED: BRANCH  22  26
DOCKED: ATOM     26  O   UNL d   1      -4.323  14.794  -3.520 -0.18 +0.43    -0.303 OA
DOCKED: ATOM     27  H   UNL d   1      -3.761  15.419  -3.019 -0.44 -0.49    +0.222 HD
DOCKED: ENDBRANCH  22  26
DOCKED: ENDBRANCH  21  22
DOCKED: ENDBRANCH   6  21
DOCKED: BRANCH   3  28
DOCKED: ATOM     28  O   UNL d   1      -8.262  21.292  -1.477 +0.00 +0.03    -0.278 OA
DOCKED: BRANCH  28  29
DOCKED: ATOM     29  P   UNL d   1      -8.140  22.872  -1.315 +0.00 -0.05    +0.473 P 
DOCKED: ATOM     30  O   UNL d   1      -9.411  23.630  -1.448 +0.00 +0.02    -0.228 OA
DOCKED: BRANCH  29  31
DOCKED: ATOM     31  O   UNL d   1      -7.391  22.950   0.097 +0.00 +0.03    -0.303 OA
DOCKED: ATOM     32  H   UNL d   1      -7.769  22.261   0.691 +0.00 -0.03    +0.222 HD
DOCKED: ENDBRANCH  29  31
DOCKED: BRANCH  29  33
DOCKED: ATOM     33  O   UNL d   1      -6.981  23.225  -2.348 +0.00 +0.03    -0.303 OA
DOCKED: ATOM     34  H   UNL d   1      -7.314  23.080  -3.267 +0.00 -0.02    +0.222 HD
DOCKED: ENDBRANCH  29  33
DOCKED: ENDBRANCH  28  29
DOCKED: ENDBRANCH   3  28
DOCKED: BRANCH   5  35
DOCKED: ATOM     35  O   UNL d   1      -8.001  17.838  -4.555 +0.00 +0.05    -0.278 OA
DOCKED: BRANCH  35  36
DOCKED: ATOM     36  P   UNL d   1      -7.858  17.652  -6.133 +0.01 -0.08    +0.473 P 
DOCKED: ATOM     37  O   UNL d   1      -8.469  16.408  -6.695 -0.00 +0.04    -0.228 OA
DOCKED: BRANCH  36  38
DOCKED: ATOM     38  O   UNL d   1      -8.502  19.002  -6.680 +0.00 +0.03    -0.303 OA
DOCKED: ATOM     39  H   UNL d   1      -8.925  19.481  -5.935 +0.00 -0.02    +0.222 HD
DOCKED: ENDBRANCH  36  38
DOCKED: BRANCH  36  40
DOCKED: ATOM     40  O   UNL d   1      -6.297  17.855  -6.359 +0.00 +0.07    -0.303 OA
DOCKED: ATOM     41  H   UNL d   1      -5.771  17.509  -5.603 +0.02 -0.07    +0.222 HD
DOCKED: ENDBRANCH  36  40
DOCKED: ENDBRANCH  35  36
DOCKED: ENDBRANCH   5  35
DOCKED: BRANCH   4  42
DOCKED: ATOM     42  O   UNL d   1      -8.164  20.736  -4.300 +0.00 +0.03    -0.278 OA
DOCKED: BRANCH  42  43
DOCKED: ATOM     43  P   UNL d   1      -9.606  21.406  -4.418 +0.00 -0.04    +0.473 P 
DOCKED: ATOM     44  O   UNL d   1     -10.438  21.042  -5.599 +0.00 +0.02    -0.228 OA
DOCKED: BRANCH  43  45
DOCKED: ATOM     45  O   UNL d   1     -10.273  21.050  -3.018 +0.00 +0.03    -0.303 OA
DOCKED: ATOM     46  H   UNL d   1     -10.137  21.766  -2.365 +0.00 -0.02    +0.222 HD
DOCKED: ENDBRANCH  43  45
DOCKED: BRANCH  43  47
DOCKED: ATOM     47  O   UNL d   1      -9.298  22.970  -4.245 +0.00 +0.02    -0.303 OA
DOCKED: ATOM     48  H   UNL d   1      -8.891  23.123  -3.367 +0.00 -0.02    +0.222 HD
DOCKED: ENDBRANCH  43  47
DOCKED: ENDBRANCH  42  43
DOCKED: ENDBRANCH   4  42
DOCKED: TORSDOF 24
DOCKED: TER
DOCKED: ENDMDL
________________________________________________________________________________


	BEGINNING GENETIC ALGORITHM DOCKING 63 of 100
Run: 63 Seed: 400491097 1167020190 [ Run 63 of 100 GA/GALS ]
Beginning LAMARCKIAN GENETIC ALGORITHM (LGA), with a maximum of 25000000 energy evaluations.

Final-Value: -16.659


	FINAL GENETIC ALGORITHM DOCKED STATE
	_______________________________________________


Detailed state:  trans 2.964 -10.456 -16.141 quatxyzw -0.576528 0.772010 0.267582 0.003884 center 0.035 0.082 -0.065 ntor 24 -179.7446 -14.3234 123.8105 11.3940 52.6294 -121.7496 -101.6080 -3.5140 107.5692 -15.4393 31.1667 -145.2404 15.5491 6.5586 -34.3311 -179.9898 178.2053 -10.0193 -133.9221 -20.7995 160.1372 26.7786 1.0766 -12.2300
State:	  2.964 -10.456 -16.141  -0.577  0.772  0.268 179.555   -179.74  -14.32  123.81   11.39   52.63 -121.75 -101.61   -3.51  107.57  -15.44   31.17 -145.24   15.55    6.56  -34.33 -179.99  178.21  -10.02 -133.92  -20.80  160.14   26.78    1.08  -12.23

DOCKED: MODEL       63
DOCKED: USER    Run = 63
DOCKED: USER    DPF = D:/Protein_go_brrr/autodock/final/mut_Y35F/IHP/dock.dpf
DOCKED: USER  
DOCKED: USER    Estimated Free Energy of Binding    =   +3.79 kcal/mol  [=(1)+(2)+(3)-(4)]
DOCKED: USER    
DOCKED: USER    (1) Final Intermolecular Energy     =   -3.37 kcal/mol
DOCKED: USER        vdW + Hbond + desolv Energy     =   -3.22 kcal/mol
DOCKED: USER        Electrostatic Energy            =   -0.15 kcal/mol
DOCKED: USER    (2) Final Total Internal Energy     =  -13.29 kcal/mol
DOCKED: USER    (3) Torsional Free Energy           =   +7.16 kcal/mol
DOCKED: USER    (4) Unbound System's Energy  [=(2)] =  -13.29 kcal/mol
DOCKED: USER    
DOCKED: USER    
DOCKED: USER    NEWDPF move IHP_ideal_opt.pdbqt
DOCKED: USER    NEWDPF about 0.035000 0.082000 -0.065000
DOCKED: USER    NEWDPF tran0 2.963830 -10.455752 -16.140766
DOCKED: USER    NEWDPF quaternion0 -0.576528 0.772010 0.267582 0.003884
DOCKED: USER    NEWDPF axisangle0 -0.576533 0.772016 0.267584 179.554887
DOCKED: USER    NEWDPF quat0 -0.576533 0.772016 0.267584 179.554887
DOCKED: USER    NEWDPF dihe0 -179.74 -14.32 123.81 11.39 52.63 -121.75 -101.61 -3.51 107.57 -15.44 31.17 -145.24 15.55 6.56 -34.33 -179.99 178.21 -10.02 -133.92 -20.80 160.14 26.78 1.08 -12.23 
DOCKED: USER  keepresnum = 1 
DOCKED: USER  
DOCKED: REMARK  24 active torsions:
DOCKED: REMARK  status: ('A' for Active; 'I' for Inactive)
DOCKED: REMARK    1  A    between atoms: C_1  and  O_7 
DOCKED: REMARK    2  A    between atoms: C_2  and  O_12 
DOCKED: REMARK    3  A    between atoms: C_3  and  O_17 
DOCKED: REMARK    4  A    between atoms: C_4  and  O_22 
DOCKED: REMARK    5  A    between atoms: C_5  and  O_27 
DOCKED: REMARK    6  A    between atoms: C_6  and  O_32 
DOCKED: REMARK    7  A    between atoms: O_7  and  P_8 
DOCKED: REMARK    8  A    between atoms: P_8  and  O_10 
DOCKED: REMARK    9  A    between atoms: P_8  and  O_11 
DOCKED: REMARK   10  A    between atoms: O_12  and  P_13 
DOCKED: REMARK   11  A    between atoms: P_13  and  O_15 
DOCKED: REMARK   12  A    between atoms: P_13  and  O_16 
DOCKED: REMARK   13  A    between atoms: O_17  and  P_18 
DOCKED: REMARK   14  A    between atoms: P_18  and  O_20 
DOCKED: REMARK   15  A    between atoms: P_18  and  O_21 
DOCKED: REMARK   16  A    between atoms: O_22  and  P_23 
DOCKED: REMARK   17  A    between atoms: P_23  and  O_25 
DOCKED: REMARK   18  A    between atoms: P_23  and  O_26 
DOCKED: REMARK   19  A    between atoms: O_27  and  P_28 
DOCKED: REMARK   20  A    between atoms: P_28  and  O_30 
DOCKED: REMARK   21  A    between atoms: P_28  and  O_31 
DOCKED: REMARK   22  A    between atoms: O_32  and  P_33 
DOCKED: REMARK   23  A    between atoms: P_33  and  O_35 
DOCKED: REMARK   24  A    between atoms: P_33  and  O_36 
DOCKED: USER                              x       y       z     vdW  Elec       q    Type
DOCKED: USER                           _______ _______ _______ _____ _____    ______ ____
DOCKED: ROOT
DOCKED: ATOM      1  C   UNL d   1       3.084 -11.421 -17.568 -0.03 -0.00    +0.194 C 
DOCKED: ATOM      2  C   UNL d   1       4.332 -10.613 -17.210 -0.04 -0.00    +0.194 C 
DOCKED: ATOM      3  C   UNL d   1       3.979  -9.190 -16.771 -0.06 +0.01    +0.194 C 
DOCKED: ATOM      4  C   UNL d   1       2.926  -9.145 -15.667 -0.01 +0.02    +0.194 C 
DOCKED: ATOM      5  C   UNL d   1       1.713 -10.028 -15.929 -0.08 +0.02    +0.194 C 
DOCKED: ATOM      6  C   UNL d   1       2.065 -11.432 -16.428 -0.06 +0.00    +0.194 C 
DOCKED: ENDROOT
DOCKED: BRANCH   1   7
DOCKED: ATOM      7  O   UNL d   1       3.480 -12.775 -17.798 -0.01 +0.00    -0.278 OA
DOCKED: BRANCH   7   8
DOCKED: ATOM      8  P   UNL d   1       3.181 -13.857 -16.662 -0.00 -0.01    +0.473 P 
DOCKED: ATOM      9  O   UNL d   1       1.740 -14.149 -16.431 -0.01 +0.00    -0.228 OA
DOCKED: BRANCH   8  10
DOCKED: ATOM     10  O   UNL d   1       4.016 -15.138 -17.117 -0.00 +0.01    -0.303 OA
DOCKED: ATOM     11  H   UNL d   1       4.738 -14.862 -17.713 +0.00 -0.01    +0.222 HD
DOCKED: ENDBRANCH   8  10
DOCKED: BRANCH   8  12
DOCKED: ATOM     12  O   UNL d   1       4.000 -13.360 -15.394 -0.06 +0.02    -0.303 OA
DOCKED: ATOM     13  H   UNL d   1       4.967 -13.296 -15.560 +0.02 -0.02    +0.222 HD
DOCKED: ENDBRANCH   8  12
DOCKED: ENDBRANCH   7   8
DOCKED: ENDBRANCH   1   7
DOCKED: BRANCH   2  14
DOCKED: ATOM     14  O   UNL d   1       5.019 -11.265 -16.135 -0.06 +0.01    -0.278 OA
DOCKED: BRANCH  14  15
DOCKED: ATOM     15  P   UNL d   1       6.429 -11.936 -16.489 -0.02 -0.02    +0.473 P 
DOCKED: ATOM     16  O   UNL d   1       7.509 -11.017 -16.968 -0.01 +0.01    -0.228 OA
DOCKED: BRANCH  15  17
DOCKED: ATOM     17  O   UNL d   1       6.829 -12.721 -15.161 -0.05 +0.02    -0.303 OA
DOCKED: ATOM     18  H   UNL d   1       6.036 -12.994 -14.662 +0.02 -0.02    +0.222 HD
DOCKED: ENDBRANCH  15  17
DOCKED: BRANCH  15  19
DOCKED: ATOM     19  O   UNL d   1       6.063 -13.134 -17.470 -0.00 +0.01    -0.303 OA
DOCKED: ATOM     20  H   UNL d   1       5.333 -13.677 -17.119 +0.01 -0.01    +0.222 HD
DOCKED: ENDBRANCH  15  19
DOCKED: ENDBRANCH  14  15
DOCKED: ENDBRANCH   2  14
DOCKED: BRANCH   6  21
DOCKED: ATOM     21  O   UNL d   1       0.863 -11.998 -16.946 -0.01 -0.00    -0.278 OA
DOCKED: BRANCH  21  22
DOCKED: ATOM     22  P   UNL d   1       0.080 -11.256 -18.121 +0.01 +0.01    +0.473 P 
DOCKED: ATOM     23  O   UNL d   1       0.588  -9.930 -18.579 -0.00 -0.00    -0.228 OA
DOCKED: BRANCH  22  24
DOCKED: ATOM     24  O   UNL d   1       0.040 -12.381 -19.246 +0.00 -0.00    -0.303 OA
DOCKED: ATOM     25  H   UNL d   1       0.677 -13.095 -18.991 +0.00 +0.00    +0.222 HD
DOCKED: ENDBRANCH  22  24
DOCKED: BRANCH  22  26
DOCKED: ATOM     26  O   UNL d   1      -1.427 -11.281 -17.574 -0.00 -0.00    -0.303 OA
DOCKED: ATOM     27  H   UNL d   1      -1.481 -10.748 -16.754 +0.02 +0.00    +0.222 HD
DOCKED: ENDBRANCH  22  26
DOCKED: ENDBRANCH  21  22
DOCKED: ENDBRANCH   6  21
DOCKED: BRANCH   3  28
DOCKED: ATOM     28  O   UNL d   1       5.148  -8.615 -16.201 -0.06 -0.01    -0.278 OA
DOCKED: BRANCH  28  29
DOCKED: ATOM     29  P   UNL d   1       5.552  -7.112 -16.539 -0.01 +0.05    +0.473 P 
DOCKED: ATOM     30  O   UNL d   1       6.369  -6.421 -15.508 -0.07 -0.05    -0.228 OA
DOCKED: BRANCH  29  31
DOCKED: ATOM     31  O   UNL d   1       6.223  -7.320 -17.978 +0.00 -0.01    -0.303 OA
DOCKED: ATOM     32  H   UNL d   1       6.880  -8.051 -17.915 +0.01 -0.00    +0.222 HD
DOCKED: ENDBRANCH  29  31
DOCKED: BRANCH  29  33
DOCKED: ATOM     33  O   UNL d   1       4.145  -6.461 -16.898 -0.01 -0.04    -0.303 OA
DOCKED: ATOM     34  H   UNL d   1       3.524  -6.600 -16.141 +0.03 +0.04    +0.222 HD
DOCKED: ENDBRANCH  29  33
DOCKED: ENDBRANCH  28  29
DOCKED: ENDBRANCH   3  28
DOCKED: BRANCH   5  35
DOCKED: ATOM     35  O   UNL d   1       1.065 -10.181 -14.668 -0.75 -0.06    -0.278 OA
DOCKED: BRANCH  35  36
DOCKED: ATOM     36  P   UNL d   1      -0.509  -9.954 -14.540 -0.11 +0.01    +0.473 P 
DOCKED: ATOM     37  O   UNL d   1      -0.953  -9.185 -13.337 -0.25 +0.00    -0.228 OA
DOCKED: BRANCH  36  38
DOCKED: ATOM     38  O   UNL d   1      -0.852  -9.254 -15.929 -0.02 -0.01    -0.303 OA
DOCKED: ATOM     39  H   UNL d   1      -0.304  -9.658 -16.636 +0.03 +0.01    +0.222 HD
DOCKED: ENDBRANCH  36  38
DOCKED: BRANCH  36  40
DOCKED: ATOM     40  O   UNL d   1      -1.079 -11.430 -14.704 -0.07 +0.01    -0.303 OA
DOCKED: ATOM     41  H   UNL d   1      -0.795 -11.838 -15.552 +0.04 +0.00    +0.222 HD
DOCKED: ENDBRANCH  36  40
DOCKED: ENDBRANCH  35  36
DOCKED: ENDBRANCH   5  35
DOCKED: BRANCH   4  42
DOCKED: ATOM     42  O   UNL d   1       2.457  -7.795 -15.596 -0.08 -0.04    -0.278 OA
DOCKED: BRANCH  42  43
DOCKED: ATOM     43  P   UNL d   1       2.557  -7.015 -14.208 -0.13 +0.19    +0.473 P 
DOCKED: ATOM     44  O   UNL d   1       3.742  -7.292 -13.349 -0.67 -0.18    -0.228 OA
DOCKED: BRANCH  43  45
DOCKED: ATOM     45  O   UNL d   1       2.416  -5.493 -14.651 -0.61 -0.17    -0.303 OA
DOCKED: ATOM     46  H   UNL d   1       2.930  -5.308 -15.462 +0.04 +0.09    +0.222 HD
DOCKED: ENDBRANCH  43  45
DOCKED: BRANCH  43  47
DOCKED: ATOM     47  O   UNL d   1       1.131  -7.290 -13.529 -0.19 -0.06    -0.303 OA
DOCKED: ATOM     48  H   UNL d   1       0.822  -8.185 -13.780 +0.08 +0.03    +0.222 HD
DOCKED: ENDBRANCH  43  47
DOCKED: ENDBRANCH  42  43
DOCKED: ENDBRANCH   4  42
DOCKED: TORSDOF 24
DOCKED: TER
DOCKED: ENDMDL
________________________________________________________________________________


	BEGINNING GENETIC ALGORITHM DOCKING 64 of 100
Run: 64 Seed: 1607978035 497413846 [ Run 64 of 100 GA/GALS ]
Beginning LAMARCKIAN GENETIC ALGORITHM (LGA), with a maximum of 25000000 energy evaluations.

Final-Value: -17.755


	FINAL GENETIC ALGORITHM DOCKED STATE
	_______________________________________________


Detailed state:  trans -8.858 -16.383 -12.513 quatxyzw 0.385756 0.880412 0.004308 0.275770 center 0.035 0.082 -0.065 ntor 24 -138.7357 -11.9144 145.6369 -14.7914 136.4724 144.3647 -122.1634 -14.9586 90.0148 88.1082 19.1006 -95.4175 58.3623 172.6308 49.9361 179.9710 86.2127 -71.7259 44.4960 15.3469 -172.7537 12.0363 9.5922 -176.3940
State:	 -8.858 -16.383 -12.513   0.401  0.916  0.004 147.984   -138.74  -11.91  145.64  -14.79  136.47  144.36 -122.16  -14.96   90.01   88.11   19.10  -95.42   58.36  172.63   49.94  179.97   86.21  -71.73   44.50   15.35 -172.75   12.04    9.59 -176.39

DOCKED: MODEL       64
DOCKED: USER    Run = 64
DOCKED: USER    DPF = D:/Protein_go_brrr/autodock/final/mut_Y35F/IHP/dock.dpf
DOCKED: USER  
DOCKED: USER    Estimated Free Energy of Binding    =   +3.25 kcal/mol  [=(1)+(2)+(3)-(4)]
DOCKED: USER    
DOCKED: USER    (1) Final Intermolecular Energy     =   -3.91 kcal/mol
DOCKED: USER        vdW + Hbond + desolv Energy     =   -3.87 kcal/mol
DOCKED: USER        Electrostatic Energy            =   -0.04 kcal/mol
DOCKED: USER    (2) Final Total Internal Energy     =  -13.85 kcal/mol
DOCKED: USER    (3) Torsional Free Energy           =   +7.16 kcal/mol
DOCKED: USER    (4) Unbound System's Energy  [=(2)] =  -13.85 kcal/mol
DOCKED: USER    
DOCKED: USER    
DOCKED: USER    NEWDPF move IHP_ideal_opt.pdbqt
DOCKED: USER    NEWDPF about 0.035000 0.082000 -0.065000
DOCKED: USER    NEWDPF tran0 -8.858327 -16.383233 -12.512562
DOCKED: USER    NEWDPF quaternion0 0.385756 0.880412 0.004308 0.275770
DOCKED: USER    NEWDPF axisangle0 0.401318 0.915928 0.004481 147.984209
DOCKED: USER    NEWDPF quat0 0.401318 0.915928 0.004481 147.984209
DOCKED: USER    NEWDPF dihe0 -138.74 -11.91 145.64 -14.79 136.47 144.36 -122.16 -14.96 90.01 88.11 19.10 -95.42 58.36 172.63 49.94 179.97 86.21 -71.73 44.50 15.35 -172.75 12.04 9.59 -176.39 
DOCKED: USER  keepresnum = 1 
DOCKED: USER  
DOCKED: REMARK  24 active torsions:
DOCKED: REMARK  status: ('A' for Active; 'I' for Inactive)
DOCKED: REMARK    1  A    between atoms: C_1  and  O_7 
DOCKED: REMARK    2  A    between atoms: C_2  and  O_12 
DOCKED: REMARK    3  A    between atoms: C_3  and  O_17 
DOCKED: REMARK    4  A    between atoms: C_4  and  O_22 
DOCKED: REMARK    5  A    between atoms: C_5  and  O_27 
DOCKED: REMARK    6  A    between atoms: C_6  and  O_32 
DOCKED: REMARK    7  A    between atoms: O_7  and  P_8 
DOCKED: REMARK    8  A    between atoms: P_8  and  O_10 
DOCKED: REMARK    9  A    between atoms: P_8  and  O_11 
DOCKED: REMARK   10  A    between atoms: O_12  and  P_13 
DOCKED: REMARK   11  A    between atoms: P_13  and  O_15 
DOCKED: REMARK   12  A    between atoms: P_13  and  O_16 
DOCKED: REMARK   13  A    between atoms: O_17  and  P_18 
DOCKED: REMARK   14  A    between atoms: P_18  and  O_20 
DOCKED: REMARK   15  A    between atoms: P_18  and  O_21 
DOCKED: REMARK   16  A    between atoms: O_22  and  P_23 
DOCKED: REMARK   17  A    between atoms: P_23  and  O_25 
DOCKED: REMARK   18  A    between atoms: P_23  and  O_26 
DOCKED: REMARK   19  A    between atoms: O_27  and  P_28 
DOCKED: REMARK   20  A    between atoms: P_28  and  O_30 
DOCKED: REMARK   21  A    between atoms: P_28  and  O_31 
DOCKED: REMARK   22  A    between atoms: O_32  and  P_33 
DOCKED: REMARK   23  A    between atoms: P_33  and  O_35 
DOCKED: REMARK   24  A    between atoms: P_33  and  O_36 
DOCKED: USER                              x       y       z     vdW  Elec       q    Type
DOCKED: USER                           _______ _______ _______ _____ _____    ______ ____
DOCKED: ROOT
DOCKED: ATOM      1  C   UNL d   1     -10.535 -15.985 -12.388 -0.16 +0.02    +0.194 C 
DOCKED: ATOM      2  C   UNL d   1     -10.218 -17.475 -12.521 -0.11 +0.02    +0.194 C 
DOCKED: ATOM      3  C   UNL d   1      -9.139 -17.734 -13.574 -0.14 +0.04    +0.194 C 
DOCKED: ATOM      4  C   UNL d   1      -7.882 -16.893 -13.367 -0.11 +0.05    +0.194 C 
DOCKED: ATOM      5  C   UNL d   1      -8.157 -15.416 -13.116 -0.21 +0.02    +0.194 C 
DOCKED: ATOM      6  C   UNL d   1      -9.279 -15.158 -12.108 -0.28 +0.01    +0.194 C 
DOCKED: ENDROOT
DOCKED: BRANCH   1   7
DOCKED: ATOM      7  O   UNL d   1     -11.415 -15.813 -11.276 -0.18 -0.04    -0.278 OA
DOCKED: BRANCH   7   8
DOCKED: ATOM      8  P   UNL d   1     -12.961 -16.165 -11.470 -0.09 +0.05    +0.473 P 
DOCKED: ATOM      9  O   UNL d   1     -13.428 -17.378 -10.745 -0.06 -0.02    -0.228 OA
DOCKED: BRANCH   8  10
DOCKED: ATOM     10  O   UNL d   1     -13.720 -14.835 -11.021 -0.16 -0.05    -0.303 OA
DOCKED: ATOM     11  H   UNL d   1     -13.481 -14.104 -11.620 +0.06 +0.04    +0.222 HD
DOCKED: ENDBRANCH   8  10
DOCKED: BRANCH   8  12
DOCKED: ATOM     12  O   UNL d   1     -13.191 -16.164 -13.042 -0.03 -0.02    -0.303 OA
DOCKED: ATOM     13  H   UNL d   1     -12.945 -15.312 -13.467 +0.03 +0.02    +0.222 HD
DOCKED: ENDBRANCH   8  12
DOCKED: ENDBRANCH   7   8
DOCKED: ENDBRANCH   1   7
DOCKED: BRANCH   2  14
DOCKED: ATOM     14  O   UNL d   1      -9.751 -17.967 -11.258 -0.16 -0.01    -0.278 OA
DOCKED: BRANCH  14  15
DOCKED: ATOM     15  P   UNL d   1     -10.124 -19.482 -10.898 -0.07 +0.04    +0.473 P 
DOCKED: ATOM     16  O   UNL d   1     -10.692 -19.729  -9.536 -0.07 -0.01    -0.228 OA
DOCKED: BRANCH  15  17
DOCKED: ATOM     17  O   UNL d   1     -11.109 -19.928 -12.069 -0.02 -0.03    -0.303 OA
DOCKED: ATOM     18  H   UNL d   1     -10.732 -19.717 -12.944 +0.03 +0.04    +0.222 HD
DOCKED: ENDBRANCH  15  17
DOCKED: BRANCH  15  19
DOCKED: ATOM     19  O   UNL d   1      -8.812 -20.309 -11.253 -0.11 -0.06    -0.303 OA
DOCKED: ATOM     20  H   UNL d   1      -8.700 -20.413 -12.216 +0.04 +0.07    +0.222 HD
DOCKED: ENDBRANCH  15  19
DOCKED: ENDBRANCH  14  15
DOCKED: ENDBRANCH   2  14
DOCKED: BRANCH   6  21
DOCKED: ATOM     21  O   UNL d   1      -9.644 -13.786 -12.240 -0.21 -0.02    -0.278 OA
DOCKED: BRANCH  21  22
DOCKED: ATOM     22  P   UNL d   1     -10.698 -13.350 -13.356 -0.04 +0.04    +0.473 P 
DOCKED: ATOM     23  O   UNL d   1     -12.148 -13.549 -13.071 -0.07 -0.03    -0.228 OA
DOCKED: BRANCH  22  24
DOCKED: ATOM     24  O   UNL d   1     -10.273 -11.842 -13.634 -0.10 -0.01    -0.303 OA
DOCKED: ATOM     25  H   UNL d   1      -9.402 -11.849 -14.106 +0.05 +0.00    +0.222 HD
DOCKED: ENDBRANCH  22  24
DOCKED: BRANCH  22  26
DOCKED: ATOM     26  O   UNL d   1     -10.127 -14.100 -14.653 -0.03 -0.02    -0.303 OA
DOCKED: ATOM     27  H   UNL d   1      -9.155 -14.185 -14.573 +0.05 +0.02    +0.222 HD
DOCKED: ENDBRANCH  22  26
DOCKED: ENDBRANCH  21  22
DOCKED: ENDBRANCH   6  21
DOCKED: BRANCH   3  28
DOCKED: ATOM     28  O   UNL d   1      -8.717 -19.084 -13.433 -0.14 -0.11    -0.278 OA
DOCKED: BRANCH  28  29
DOCKED: ATOM     29  P   UNL d   1      -8.813 -20.090 -14.664 -0.09 +0.27    +0.473 P 
DOCKED: ATOM     30  O   UNL d   1      -7.853 -21.224 -14.642 -0.47 -0.27    -0.228 OA
DOCKED: BRANCH  29  31
DOCKED: ATOM     31  O   UNL d   1     -10.370 -20.456 -14.604 -0.02 -0.08    -0.303 OA
DOCKED: ATOM     32  H   UNL d   1     -10.531 -21.015 -13.809 +0.02 +0.05    +0.222 HD
DOCKED: ENDBRANCH  29  31
DOCKED: BRANCH  29  33
DOCKED: ATOM     33  O   UNL d   1      -8.732 -19.102 -15.910 -0.07 -0.15    -0.303 OA
DOCKED: ATOM     34  H   UNL d   1      -8.018 -18.438 -15.747 +0.02 +0.13    +0.222 HD
DOCKED: ENDBRANCH  29  33
DOCKED: ENDBRANCH  28  29
DOCKED: ENDBRANCH   3  28
DOCKED: BRANCH   5  35
DOCKED: ATOM     35  O   UNL d   1      -6.958 -14.888 -12.554 -0.28 -0.00    -0.278 OA
DOCKED: BRANCH  35  36
DOCKED: ATOM     36  P   UNL d   1      -6.436 -13.443 -12.982 -0.16 -0.04    +0.473 P 
DOCKED: ATOM     37  O   UNL d   1      -6.080 -12.526 -11.856 -0.30 +0.07    -0.228 OA
DOCKED: BRANCH  36  38
DOCKED: ATOM     38  O   UNL d   1      -5.218 -13.807 -13.941 -0.14 -0.01    -0.303 OA
DOCKED: ATOM     39  H   UNL d   1      -5.320 -14.732 -14.253 +0.06 +0.03    +0.222 HD
DOCKED: ENDBRANCH  36  38
DOCKED: BRANCH  36  40
DOCKED: ATOM     40  O   UNL d   1      -7.574 -12.953 -13.980 -0.05 +0.00    -0.303 OA
DOCKED: ATOM     41  H   UNL d   1      -8.473 -13.112 -13.614 +0.07 +0.00    +0.222 HD
DOCKED: ENDBRANCH  36  40
DOCKED: ENDBRANCH  35  36
DOCKED: ENDBRANCH   5  35
DOCKED: BRANCH   4  42
DOCKED: ATOM     42  O   UNL d   1      -7.120 -16.980 -14.576 -0.07 -0.12    -0.278 OA
DOCKED: BRANCH  42  43
DOCKED: ATOM     43  P   UNL d   1      -7.640 -16.208 -15.872 -0.06 +0.12    +0.473 P 
DOCKED: ATOM     44  O   UNL d   1      -9.102 -15.943 -15.973 -0.02 -0.03    -0.228 OA
DOCKED: BRANCH  43  45
DOCKED: ATOM     45  O   UNL d   1      -6.739 -14.896 -15.881 -0.03 -0.05    -0.303 OA
DOCKED: ATOM     46  H   UNL d   1      -6.792 -14.419 -15.029 +0.05 +0.02    +0.222 HD
DOCKED: ENDBRANCH  43  45
DOCKED: BRANCH  43  47
DOCKED: ATOM     47  O   UNL d   1      -7.003 -17.048 -17.079 -0.06 -0.11    -0.303 OA
DOCKED: ATOM     48  H   UNL d   1      -7.577 -17.818 -17.274 +0.02 +0.09    +0.222 HD
DOCKED: ENDBRANCH  43  47
DOCKED: ENDBRANCH  42  43
DOCKED: ENDBRANCH   4  42
DOCKED: TORSDOF 24
DOCKED: TER
DOCKED: ENDMDL
________________________________________________________________________________


	BEGINNING GENETIC ALGORITHM DOCKING 65 of 100
Run: 65 Seed: 58587989 1107339476 [ Run 65 of 100 GA/GALS ]
Beginning LAMARCKIAN GENETIC ALGORITHM (LGA), with a maximum of 25000000 energy evaluations.

Final-Value: -17.335


	FINAL GENETIC ALGORITHM DOCKED STATE
	_______________________________________________


Detailed state:  trans 7.682 7.143 14.804 quatxyzw -0.624216 0.199990 -0.675241 0.338243 center 0.035 0.082 -0.065 ntor 24 88.9009 22.5629 128.6196 118.2630 -77.4029 -161.1226 103.4386 -14.2894 156.1079 -5.5639 180.0000 164.9997 180.0000 89.8244 19.8319 33.6244 112.1811 -139.5142 25.9385 -23.8213 164.4372 -43.3937 -41.4236 167.4937
State:	  7.682   7.143  14.804  -0.663  0.213 -0.718 140.460     88.90   22.56  128.62  118.26  -77.40 -161.12  103.44  -14.29  156.11   -5.56  180.00  165.00  180.00   89.82   19.83   33.62  112.18 -139.51   25.94  -23.82  164.44  -43.39  -41.42  167.49

DOCKED: MODEL       65
DOCKED: USER    Run = 65
DOCKED: USER    DPF = D:/Protein_go_brrr/autodock/final/mut_Y35F/IHP/dock.dpf
DOCKED: USER  
DOCKED: USER    Estimated Free Energy of Binding    =   +4.19 kcal/mol  [=(1)+(2)+(3)-(4)]
DOCKED: USER    
DOCKED: USER    (1) Final Intermolecular Energy     =   -2.97 kcal/mol
DOCKED: USER        vdW + Hbond + desolv Energy     =   -2.55 kcal/mol
DOCKED: USER        Electrostatic Energy            =   -0.42 kcal/mol
DOCKED: USER    (2) Final Total Internal Energy     =  -14.37 kcal/mol
DOCKED: USER    (3) Torsional Free Energy           =   +7.16 kcal/mol
DOCKED: USER    (4) Unbound System's Energy  [=(2)] =  -14.37 kcal/mol
DOCKED: USER    
DOCKED: USER    
DOCKED: USER    NEWDPF move IHP_ideal_opt.pdbqt
DOCKED: USER    NEWDPF about 0.035000 0.082000 -0.065000
DOCKED: USER    NEWDPF tran0 7.682398 7.142593 14.803883
DOCKED: USER    NEWDPF quaternion0 -0.624216 0.199990 -0.675241 0.338243
DOCKED: USER    NEWDPF axisangle0 -0.663312 0.212516 -0.717533 140.460217
DOCKED: USER    NEWDPF quat0 -0.663312 0.212516 -0.717533 140.460217
DOCKED: USER    NEWDPF dihe0 88.90 22.56 128.62 118.26 -77.40 -161.12 103.44 -14.29 156.11 -5.56 180.00 165.00 180.00 89.82 19.83 33.62 112.18 -139.51 25.94 -23.82 164.44 -43.39 -41.42 167.49 
DOCKED: USER  keepresnum = 1 
DOCKED: USER  
DOCKED: REMARK  24 active torsions:
DOCKED: REMARK  status: ('A' for Active; 'I' for Inactive)
DOCKED: REMARK    1  A    between atoms: C_1  and  O_7 
DOCKED: REMARK    2  A    between atoms: C_2  and  O_12 
DOCKED: REMARK    3  A    between atoms: C_3  and  O_17 
DOCKED: REMARK    4  A    between atoms: C_4  and  O_22 
DOCKED: REMARK    5  A    between atoms: C_5  and  O_27 
DOCKED: REMARK    6  A    between atoms: C_6  and  O_32 
DOCKED: REMARK    7  A    between atoms: O_7  and  P_8 
DOCKED: REMARK    8  A    between atoms: P_8  and  O_10 
DOCKED: REMARK    9  A    between atoms: P_8  and  O_11 
DOCKED: REMARK   10  A    between atoms: O_12  and  P_13 
DOCKED: REMARK   11  A    between atoms: P_13  and  O_15 
DOCKED: REMARK   12  A    between atoms: P_13  and  O_16 
DOCKED: REMARK   13  A    between atoms: O_17  and  P_18 
DOCKED: REMARK   14  A    between atoms: P_18  and  O_20 
DOCKED: REMARK   15  A    between atoms: P_18  and  O_21 
DOCKED: REMARK   16  A    between atoms: O_22  and  P_23 
DOCKED: REMARK   17  A    between atoms: P_23  and  O_25 
DOCKED: REMARK   18  A    between atoms: P_23  and  O_26 
DOCKED: REMARK   19  A    between atoms: O_27  and  P_28 
DOCKED: REMARK   20  A    between atoms: P_28  and  O_30 
DOCKED: REMARK   21  A    between atoms: P_28  and  O_31 
DOCKED: REMARK   22  A    between atoms: O_32  and  P_33 
DOCKED: REMARK   23  A    between atoms: P_33  and  O_35 
DOCKED: REMARK   24  A    between atoms: P_33  and  O_36 
DOCKED: USER                              x       y       z     vdW  Elec       q    Type
DOCKED: USER                           _______ _______ _______ _____ _____    ______ ____
DOCKED: ROOT
DOCKED: ATOM      1  C   UNL d   1       8.880   7.468  16.006 -0.02 +0.04    +0.194 C 
DOCKED: ATOM      2  C   UNL d   1       9.176   8.021  14.611 -0.05 +0.06    +0.194 C 
DOCKED: ATOM      3  C   UNL d   1       8.846   7.004  13.516 -0.08 +0.07    +0.194 C 
DOCKED: ATOM      4  C   UNL d   1       7.430   6.442  13.625 -0.13 +0.06    +0.194 C 
DOCKED: ATOM      5  C   UNL d   1       7.051   5.984  15.028 -0.08 +0.03    +0.194 C 
DOCKED: ATOM      6  C   UNL d   1       7.438   6.974  16.129 -0.05 +0.03    +0.194 C 
DOCKED: ENDROOT
DOCKED: BRANCH   1   7
DOCKED: ATOM      7  O   UNL d   1       9.049   8.528  16.951 -0.01 -0.06    -0.278 OA
DOCKED: BRANCH   7   8
DOCKED: ATOM      8  P   UNL d   1      10.444   8.643  17.721 +0.01 +0.08    +0.473 P 
DOCKED: ATOM      9  O   UNL d   1      10.340   8.736  19.203 +0.00 -0.03    -0.228 OA
DOCKED: BRANCH   8  10
DOCKED: ATOM     10  O   UNL d   1      11.264   7.367  17.227 +0.00 -0.04    -0.303 OA
DOCKED: ATOM     11  H   UNL d   1      10.856   6.557  17.587 +0.00 +0.03    +0.222 HD
DOCKED: ENDBRANCH   8  10
DOCKED: BRANCH   8  12
DOCKED: ATOM     12  O   UNL d   1      11.215   9.832  17.003 +0.00 -0.09    -0.303 OA
DOCKED: ATOM     13  H   UNL d   1      10.898  10.000  16.087 +0.02 +0.09    +0.222 HD
DOCKED: ENDBRANCH   8  12
DOCKED: ENDBRANCH   7   8
DOCKED: ENDBRANCH   1   7
DOCKED: BRANCH   2  14
DOCKED: ATOM     14  O   UNL d   1       8.385   9.196  14.396 -0.09 -0.11    -0.278 OA
DOCKED: BRANCH  14  15
DOCKED: ATOM     15  P   UNL d   1       9.164  10.595  14.407 -0.11 +0.38    +0.473 P 
DOCKED: ATOM     16  O   UNL d   1       8.661  11.652  13.474 -0.58 -0.33    -0.228 OA
DOCKED: BRANCH  15  17
DOCKED: ATOM     17  O   UNL d   1       9.123  11.049  15.934 -0.18 -0.27    -0.303 OA
DOCKED: ATOM     18  H   UNL d   1       9.151  10.277  16.531 +0.02 +0.11    +0.222 HD
DOCKED: ENDBRANCH  15  17
DOCKED: BRANCH  15  19
DOCKED: ATOM     19  O   UNL d   1      10.695  10.199  14.233 -0.04 -0.16    -0.303 OA
DOCKED: ATOM     20  H   UNL d   1      10.846   9.700  13.409 +0.03 +0.09    +0.222 HD
DOCKED: ENDBRANCH  15  19
DOCKED: ENDBRANCH  14  15
DOCKED: ENDBRANCH   2  14
DOCKED: BRANCH   6  21
DOCKED: ATOM     21  O   UNL d   1       7.340   6.273  17.366 -0.03 -0.02    -0.278 OA
DOCKED: BRANCH  21  22
DOCKED: ATOM     22  P   UNL d   1       8.271   5.006  17.635 -0.00 +0.03    +0.473 P 
DOCKED: ATOM     23  O   UNL d   1       9.735   5.141  17.385 -0.00 -0.02    -0.228 OA
DOCKED: BRANCH  22  24
DOCKED: ATOM     24  O   UNL d   1       7.881   4.626  19.130 -0.00 -0.01    -0.303 OA
DOCKED: ATOM     25  H   UNL d   1       8.700   4.313  19.592 +0.00 +0.01    +0.222 HD
DOCKED: ENDBRANCH  22  24
DOCKED: BRANCH  22  26
DOCKED: ATOM     26  O   UNL d   1       7.518   3.865  16.796 -0.01 -0.02    -0.303 OA
DOCKED: ATOM     27  H   UNL d   1       6.996   4.283  16.081 +0.03 +0.02    +0.222 HD
DOCKED: ENDBRANCH  22  26
DOCKED: ENDBRANCH  21  22
DOCKED: ENDBRANCH   6  21
DOCKED: BRANCH   3  28
DOCKED: ATOM     28  O   UNL d   1       8.885   7.688  12.270 -0.08 -0.13    -0.278 OA
DOCKED: BRANCH  28  29
DOCKED: ATOM     29  P   UNL d   1      10.264   8.248  11.703 -0.06 +0.23    +0.473 P 
DOCKED: ATOM     30  O   UNL d   1      11.477   7.852  12.463 -0.02 -0.10    -0.228 OA
DOCKED: BRANCH  29  31
DOCKED: ATOM     31  O   UNL d   1      10.163   7.752  10.185 -0.10 -0.21    -0.303 OA
DOCKED: ATOM     32  H   UNL d   1      10.720   8.341   9.625 +0.05 +0.11    +0.222 HD
DOCKED: ENDBRANCH  29  31
DOCKED: BRANCH  29  33
DOCKED: ATOM     33  O   UNL d   1       9.967   9.808  11.584 -0.08 -0.12    -0.303 OA
DOCKED: ATOM     34  H   UNL d   1       9.510  10.112  12.407 +0.05 +0.11    +0.222 HD
DOCKED: ENDBRANCH  29  33
DOCKED: ENDBRANCH  28  29
DOCKED: ENDBRANCH   3  28
DOCKED: BRANCH   5  35
DOCKED: ATOM     35  O   UNL d   1       5.628   5.887  15.032 -0.06 -0.04    -0.278 OA
DOCKED: BRANCH  35  36
DOCKED: ATOM     36  P   UNL d   1       4.914   4.524  14.610 -0.12 +0.04    +0.473 P 
DOCKED: ATOM     37  O   UNL d   1       3.531   4.328  15.145 -0.20 -0.01    -0.228 OA
DOCKED: BRANCH  36  38
DOCKED: ATOM     38  O   UNL d   1       4.997   4.591  13.021 -0.12 -0.05    -0.303 OA
DOCKED: ATOM     39  H   UNL d   1       5.860   4.225  12.729 +0.07 +0.05    +0.222 HD
DOCKED: ENDBRANCH  36  38
DOCKED: BRANCH  36  40
DOCKED: ATOM     40  O   UNL d   1       6.002   3.433  15.005 -0.03 -0.02    -0.303 OA
DOCKED: ATOM     41  H   UNL d   1       6.898   3.681  14.685 +0.04 +0.03    +0.222 HD
DOCKED: ENDBRANCH  36  40
DOCKED: ENDBRANCH  35  36
DOCKED: ENDBRANCH   5  35
DOCKED: BRANCH   4  42
DOCKED: ATOM     42  O   UNL d   1       7.375   5.290  12.777 -0.12 -0.12    -0.278 OA
DOCKED: BRANCH  42  43
DOCKED: ATOM     43  P   UNL d   1       8.420   4.108  13.012 -0.07 +0.29    +0.473 P 
DOCKED: ATOM     44  O   UNL d   1       9.675   4.131  12.211 -0.33 -0.35    -0.228 OA
DOCKED: BRANCH  43  45
DOCKED: ATOM     45  O   UNL d   1       8.652   4.155  14.586 -0.01 -0.09    -0.303 OA
DOCKED: ATOM     46  H   UNL d   1       8.216   3.404  15.035 +0.02 +0.04    +0.222 HD
DOCKED: ENDBRANCH  43  45
DOCKED: BRANCH  43  47
DOCKED: ATOM     47  O   UNL d   1       7.523   2.789  12.855 -0.07 -0.12    -0.303 OA
DOCKED: ATOM     48  H   UNL d   1       6.576   3.034  12.918 +0.05 +0.06    +0.222 HD
DOCKED: ENDBRANCH  43  47
DOCKED: ENDBRANCH  42  43
DOCKED: ENDBRANCH   4  42
DOCKED: TORSDOF 24
DOCKED: TER
DOCKED: ENDMDL
________________________________________________________________________________


	BEGINNING GENETIC ALGORITHM DOCKING 66 of 100
Run: 66 Seed: 139140768 412895766 [ Run 66 of 100 GA/GALS ]
Beginning LAMARCKIAN GENETIC ALGORITHM (LGA), with a maximum of 25000000 energy evaluations.

Final-Value: -18.277


	FINAL GENETIC ALGORITHM DOCKED STATE
	_______________________________________________


Detailed state:  trans 14.037 13.272 -9.823 quatxyzw 0.423660 -0.260952 0.234834 -0.835026 center 0.035 0.082 -0.065 ntor 24 -107.2727 27.4753 179.2614 87.7714 21.0077 -116.9290 -21.6764 -130.6859 15.2793 25.1472 -19.0515 161.8051 -179.5941 38.7042 -13.1880 81.2548 166.4369 -180.0000 60.8230 11.8681 165.1167 -15.5636 -14.9201 -28.9735
State:	 14.037  13.272  -9.823   0.770 -0.474  0.427 -66.763   -107.27   27.48  179.26   87.77   21.01 -116.93  -21.68 -130.69   15.28   25.15  -19.05  161.81 -179.59   38.70  -13.19   81.25  166.44 -180.00   60.82   11.87  165.12  -15.56  -14.92  -28.97

DOCKED: MODEL       66
DOCKED: USER    Run = 66
DOCKED: USER    DPF = D:/Protein_go_brrr/autodock/final/mut_Y35F/IHP/dock.dpf
DOCKED: USER  
DOCKED: USER    Estimated Free Energy of Binding    =   +2.05 kcal/mol  [=(1)+(2)+(3)-(4)]
DOCKED: USER    
DOCKED: USER    (1) Final Intermolecular Energy     =   -5.11 kcal/mol
DOCKED: USER        vdW + Hbond + desolv Energy     =   -5.04 kcal/mol
DOCKED: USER        Electrostatic Energy            =   -0.07 kcal/mol
DOCKED: USER    (2) Final Total Internal Energy     =  -13.17 kcal/mol
DOCKED: USER    (3) Torsional Free Energy           =   +7.16 kcal/mol
DOCKED: USER    (4) Unbound System's Energy  [=(2)] =  -13.17 kcal/mol
DOCKED: USER    
DOCKED: USER    
DOCKED: USER    NEWDPF move IHP_ideal_opt.pdbqt
DOCKED: USER    NEWDPF about 0.035000 0.082000 -0.065000
DOCKED: USER    NEWDPF tran0 14.036517 13.272256 -9.822596
DOCKED: USER    NEWDPF quaternion0 0.423660 -0.260952 0.234834 -0.835026
DOCKED: USER    NEWDPF axisangle0 0.769997 -0.474278 0.426809 -66.762843
DOCKED: USER    NEWDPF quat0 0.769997 -0.474278 0.426809 -66.762843
DOCKED: USER    NEWDPF dihe0 -107.27 27.48 179.26 87.77 21.01 -116.93 -21.68 -130.69 15.28 25.15 -19.05 161.81 -179.59 38.70 -13.19 81.25 166.44 -180.00 60.82 11.87 165.12 -15.56 -14.92 -28.97 
DOCKED: USER  keepresnum = 1 
DOCKED: USER  
DOCKED: REMARK  24 active torsions:
DOCKED: REMARK  status: ('A' for Active; 'I' for Inactive)
DOCKED: REMARK    1  A    between atoms: C_1  and  O_7 
DOCKED: REMARK    2  A    between atoms: C_2  and  O_12 
DOCKED: REMARK    3  A    between atoms: C_3  and  O_17 
DOCKED: REMARK    4  A    between atoms: C_4  and  O_22 
DOCKED: REMARK    5  A    between atoms: C_5  and  O_27 
DOCKED: REMARK    6  A    between atoms: C_6  and  O_32 
DOCKED: REMARK    7  A    between atoms: O_7  and  P_8 
DOCKED: REMARK    8  A    between atoms: P_8  and  O_10 
DOCKED: REMARK    9  A    between atoms: P_8  and  O_11 
DOCKED: REMARK   10  A    between atoms: O_12  and  P_13 
DOCKED: REMARK   11  A    between atoms: P_13  and  O_15 
DOCKED: REMARK   12  A    between atoms: P_13  and  O_16 
DOCKED: REMARK   13  A    between atoms: O_17  and  P_18 
DOCKED: REMARK   14  A    between atoms: P_18  and  O_20 
DOCKED: REMARK   15  A    between atoms: P_18  and  O_21 
DOCKED: REMARK   16  A    between atoms: O_22  and  P_23 
DOCKED: REMARK   17  A    between atoms: P_23  and  O_25 
DOCKED: REMARK   18  A    between atoms: P_23  and  O_26 
DOCKED: REMARK   19  A    between atoms: O_27  and  P_28 
DOCKED: REMARK   20  A    between atoms: P_28  and  O_30 
DOCKED: REMARK   21  A    between atoms: P_28  and  O_31 
DOCKED: REMARK   22  A    between atoms: O_32  and  P_33 
DOCKED: REMARK   23  A    between atoms: P_33  and  O_35 
DOCKED: REMARK   24  A    between atoms: P_33  and  O_36 
DOCKED: USER                              x       y       z     vdW  Elec       q    Type
DOCKED: USER                           _______ _______ _______ _____ _____    ______ ____
DOCKED: ROOT
DOCKED: ATOM      1  C   UNL d   1      15.338  12.359  -9.147 -0.15 -0.05    +0.194 C 
DOCKED: ATOM      2  C   UNL d   1      14.978  12.025 -10.596 -0.17 -0.06    +0.194 C 
DOCKED: ATOM      3  C   UNL d   1      13.463  11.952 -10.801 -0.04 -0.07    +0.194 C 
DOCKED: ATOM      4  C   UNL d   1      12.727  13.189 -10.294 -0.15 -0.05    +0.194 C 
DOCKED: ATOM      5  C   UNL d   1      13.140  13.626  -8.894 -0.16 -0.04    +0.194 C 
DOCKED: ATOM      6  C   UNL d   1      14.653  13.640  -8.671 -0.09 -0.05    +0.194 C 
DOCKED: ENDROOT
DOCKED: BRANCH   1   7
DOCKED: ATOM      7  O   UNL d   1      16.749  12.578  -9.078 -0.06 +0.07    -0.278 OA
DOCKED: BRANCH   7   8
DOCKED: ATOM      8  P   UNL d   1      17.724  11.372  -9.460 -0.20 -0.13    +0.473 P 
DOCKED: ATOM      9  O   UNL d   1      18.766  11.057  -8.445 -0.41 +0.08    -0.228 OA
DOCKED: BRANCH   8  10
DOCKED: ATOM     10  O   UNL d   1      16.737  10.152  -9.746 -0.38 +0.09    -0.303 OA
DOCKED: ATOM     11  H   UNL d   1      16.551  10.100 -10.703 +0.11 -0.07    +0.222 HD
DOCKED: ENDBRANCH   8  10
DOCKED: BRANCH   8  12
DOCKED: ATOM     12  O   UNL d   1      18.257  11.718 -10.916 -0.12 +0.07    -0.303 OA
DOCKED: ATOM     13  H   UNL d   1      17.707  12.390 -11.379 +0.05 -0.04    +0.222 HD
DOCKED: ENDBRANCH   8  12
DOCKED: ENDBRANCH   7   8
DOCKED: ENDBRANCH   1   7
DOCKED: BRANCH   2  14
DOCKED: ATOM     14  O   UNL d   1      15.506  13.043 -11.455 -0.04 +0.05    -0.278 OA
DOCKED: BRANCH  14  15
DOCKED: ATOM     15  P   UNL d   1      16.063  12.562 -12.877 -0.05 -0.07    +0.473 P 
DOCKED: ATOM     16  O   UNL d   1      15.110  12.630 -14.030 -0.04 +0.03    -0.228 OA
DOCKED: BRANCH  15  17
DOCKED: ATOM     17  O   UNL d   1      17.368  13.447 -13.102 -0.02 +0.04    -0.303 OA
DOCKED: ATOM     18  H   UNL d   1      18.141  13.055 -12.651 +0.03 -0.03    +0.222 HD
DOCKED: ENDBRANCH  15  17
DOCKED: BRANCH  15  19
DOCKED: ATOM     19  O   UNL d   1      16.693  11.130 -12.593 +0.11 +0.02    -0.303 OA
DOCKED: ATOM     20  H   UNL d   1      16.255  10.685 -11.843 +0.08 -0.03    +0.222 HD
DOCKED: ENDBRANCH  15  19
DOCKED: ENDBRANCH  14  15
DOCKED: ENDBRANCH   2  14
DOCKED: BRANCH   6  21
DOCKED: ATOM     21  O   UNL d   1      14.861  13.727  -7.263 -0.09 +0.08    -0.278 OA
DOCKED: BRANCH  21  22
DOCKED: ATOM     22  P   UNL d   1      14.349  12.551  -6.313 -0.25 -0.14    +0.473 P 
DOCKED: ATOM     23  O   UNL d   1      14.019  11.236  -6.935 -0.38 +0.06    -0.228 OA
DOCKED: BRANCH  22  24
DOCKED: ATOM     24  O   UNL d   1      15.497  12.499  -5.212 -0.27 +0.08    -0.303 OA
DOCKED: ATOM     25  H   UNL d   1      16.372  12.541  -5.676 +0.12 -0.06    +0.222 HD
DOCKED: ENDBRANCH  22  24
DOCKED: BRANCH  22  26
DOCKED: ATOM     26  O   UNL d   1      13.158  13.271  -5.517 -0.31 +0.11    -0.303 OA
DOCKED: ATOM     27  H   UNL d   1      12.419  13.446  -6.134 +0.13 -0.06    +0.222 HD
DOCKED: ENDBRANCH  22  26
DOCKED: ENDBRANCH  21  22
DOCKED: ENDBRANCH   6  21
DOCKED: BRANCH   3  28
DOCKED: ATOM     28  O   UNL d   1      13.222  11.917 -12.202 -0.10 +0.07    -0.278 OA
DOCKED: BRANCH  28  29
DOCKED: ATOM     29  P   UNL d   1      13.029  10.524 -12.951 -0.18 -0.12    +0.473 P 
DOCKED: ATOM     30  O   UNL d   1      11.963   9.646 -12.405 -0.42 +0.05    -0.228 OA
DOCKED: BRANCH  29  31
DOCKED: ATOM     31  O   UNL d   1      12.847  11.039 -14.455 -0.05 +0.05    -0.303 OA
DOCKED: ATOM     32  H   UNL d   1      13.356  11.875 -14.564 +0.04 -0.03    +0.222 HD
DOCKED: ENDBRANCH  29  31
DOCKED: BRANCH  29  33
DOCKED: ATOM     33  O   UNL d   1      14.510   9.939 -12.956 -0.19 +0.10    -0.303 OA
DOCKED: ATOM     34  H   UNL d   1      15.058  10.459 -13.593 -0.03 -0.06    +0.222 HD
DOCKED: ENDBRANCH  29  33
DOCKED: ENDBRANCH  28  29
DOCKED: ENDBRANCH   3  28
DOCKED: BRANCH   5  35
DOCKED: ATOM     35  O   UNL d   1      12.683  14.971  -8.759 -0.06 +0.05    -0.278 OA
DOCKED: BRANCH  35  36
DOCKED: ATOM     36  P   UNL d   1      11.565  15.335  -7.681 -0.12 -0.07    +0.473 P 
DOCKED: ATOM     37  O   UNL d   1      10.665  16.473  -8.045 -0.11 +0.01    -0.228 OA
DOCKED: BRANCH  36  38
DOCKED: ATOM     38  O   UNL d   1      10.817  13.941  -7.502 -0.32 +0.02    -0.303 OA
DOCKED: ATOM     39  H   UNL d   1      10.519  13.622  -8.381 +0.07 -0.03    +0.222 HD
DOCKED: ENDBRANCH  36  38
DOCKED: BRANCH  36  40
DOCKED: ATOM     40  O   UNL d   1      12.417  15.487  -6.346 -0.20 +0.11    -0.303 OA
DOCKED: ATOM     41  H   UNL d   1      13.308  15.083  -6.435 +0.09 -0.09    +0.222 HD
DOCKED: ENDBRANCH  36  40
DOCKED: ENDBRANCH  35  36
DOCKED: ENDBRANCH   5  35
DOCKED: BRANCH   4  42
DOCKED: ATOM     42  O   UNL d   1      11.338  12.851 -10.237 -0.25 +0.06    -0.278 OA
DOCKED: BRANCH  42  43
DOCKED: ATOM     43  P   UNL d   1      10.260  13.936 -10.691 -0.16 -0.05    +0.473 P 
DOCKED: ATOM     44  O   UNL d   1       9.074  14.135  -9.813 -0.26 +0.01    -0.228 OA
DOCKED: BRANCH  43  45
DOCKED: ATOM     45  O   UNL d   1      11.145  15.242 -10.895 -0.03 +0.03    -0.303 OA
DOCKED: ATOM     46  H   UNL d   1      11.181  15.782 -10.080 +0.05 -0.02    +0.222 HD
DOCKED: ENDBRANCH  43  45
DOCKED: BRANCH  43  47
DOCKED: ATOM     47  O   UNL d   1       9.938  13.520 -12.205 -0.14 +0.02    -0.303 OA
DOCKED: ATOM     48  H   UNL d   1      10.662  12.955 -12.546 +0.06 -0.02    +0.222 HD
DOCKED: ENDBRANCH  43  47
DOCKED: ENDBRANCH  42  43
DOCKED: ENDBRANCH   4  42
DOCKED: TORSDOF 24
DOCKED: TER
DOCKED: ENDMDL
________________________________________________________________________________


	BEGINNING GENETIC ALGORITHM DOCKING 67 of 100
Run: 67 Seed: 1164642316 1337096273 [ Run 67 of 100 GA/GALS ]
Beginning LAMARCKIAN GENETIC ALGORITHM (LGA), with a maximum of 25000000 energy evaluations.

Final-Value: -18.215


	FINAL GENETIC ALGORITHM DOCKED STATE
	_______________________________________________


Detailed state:  trans 6.014 -17.289 0.798 quatxyzw 0.781370 0.155527 0.214044 -0.565205 center 0.035 0.082 -0.065 ntor 24 -80.2613 -141.5991 24.4594 48.3996 12.3932 -153.1020 -108.4675 -20.4300 15.4468 52.8481 141.2983 119.3614 -166.5982 161.2836 -11.4857 41.3137 -180.0000 54.5943 53.2377 -0.1158 2.8444 -2.1355 -27.7673 -11.3642
State:	  6.014 -17.289   0.798   0.947  0.189  0.259 -111.167    -80.26 -141.60   24.46   48.40   12.39 -153.10 -108.47  -20.43   15.45   52.85  141.30  119.36 -166.60  161.28  -11.49   41.31 -180.00   54.59   53.24   -0.12    2.84   -2.14  -27.77  -11.36

DOCKED: MODEL       67
DOCKED: USER    Run = 67
DOCKED: USER    DPF = D:/Protein_go_brrr/autodock/final/mut_Y35F/IHP/dock.dpf
DOCKED: USER  
DOCKED: USER    Estimated Free Energy of Binding    =   +1.83 kcal/mol  [=(1)+(2)+(3)-(4)]
DOCKED: USER    
DOCKED: USER    (1) Final Intermolecular Energy     =   -5.33 kcal/mol
DOCKED: USER        vdW + Hbond + desolv Energy     =   -5.04 kcal/mol
DOCKED: USER        Electrostatic Energy            =   -0.29 kcal/mol
DOCKED: USER    (2) Final Total Internal Energy     =  -12.88 kcal/mol
DOCKED: USER    (3) Torsional Free Energy           =   +7.16 kcal/mol
DOCKED: USER    (4) Unbound System's Energy  [=(2)] =  -12.88 kcal/mol
DOCKED: USER    
DOCKED: USER    
DOCKED: USER    NEWDPF move IHP_ideal_opt.pdbqt
DOCKED: USER    NEWDPF about 0.035000 0.082000 -0.065000
DOCKED: USER    NEWDPF tran0 6.014498 -17.288976 0.797510
DOCKED: USER    NEWDPF quaternion0 0.781370 0.155527 0.214044 -0.565205
DOCKED: USER    NEWDPF axisangle0 0.947173 0.188529 0.259462 -111.166933
DOCKED: USER    NEWDPF quat0 0.947173 0.188529 0.259462 -111.166933
DOCKED: USER    NEWDPF dihe0 -80.26 -141.60 24.46 48.40 12.39 -153.10 -108.47 -20.43 15.45 52.85 141.30 119.36 -166.60 161.28 -11.49 41.31 -180.00 54.59 53.24 -0.12 2.84 -2.14 -27.77 -11.36 
DOCKED: USER  keepresnum = 1 
DOCKED: USER  
DOCKED: REMARK  24 active torsions:
DOCKED: REMARK  status: ('A' for Active; 'I' for Inactive)
DOCKED: REMARK    1  A    between atoms: C_1  and  O_7 
DOCKED: REMARK    2  A    between atoms: C_2  and  O_12 
DOCKED: REMARK    3  A    between atoms: C_3  and  O_17 
DOCKED: REMARK    4  A    between atoms: C_4  and  O_22 
DOCKED: REMARK    5  A    between atoms: C_5  and  O_27 
DOCKED: REMARK    6  A    between atoms: C_6  and  O_32 
DOCKED: REMARK    7  A    between atoms: O_7  and  P_8 
DOCKED: REMARK    8  A    between atoms: P_8  and  O_10 
DOCKED: REMARK    9  A    between atoms: P_8  and  O_11 
DOCKED: REMARK   10  A    between atoms: O_12  and  P_13 
DOCKED: REMARK   11  A    between atoms: P_13  and  O_15 
DOCKED: REMARK   12  A    between atoms: P_13  and  O_16 
DOCKED: REMARK   13  A    between atoms: O_17  and  P_18 
DOCKED: REMARK   14  A    between atoms: P_18  and  O_20 
DOCKED: REMARK   15  A    between atoms: P_18  and  O_21 
DOCKED: REMARK   16  A    between atoms: O_22  and  P_23 
DOCKED: REMARK   17  A    between atoms: P_23  and  O_25 
DOCKED: REMARK   18  A    between atoms: P_23  and  O_26 
DOCKED: REMARK   19  A    between atoms: O_27  and  P_28 
DOCKED: REMARK   20  A    between atoms: P_28  and  O_30 
DOCKED: REMARK   21  A    between atoms: P_28  and  O_31 
DOCKED: REMARK   22  A    between atoms: O_32  and  P_33 
DOCKED: REMARK   23  A    between atoms: P_33  and  O_35 
DOCKED: REMARK   24  A    between atoms: P_33  and  O_36 
DOCKED: USER                              x       y       z     vdW  Elec       q    Type
DOCKED: USER                           _______ _______ _______ _____ _____    ______ ____
DOCKED: ROOT
DOCKED: ATOM      1  C   UNL d   1       7.495 -17.050  -0.060 -0.10 -0.03    +0.194 C 
DOCKED: ATOM      2  C   UNL d   1       6.232 -17.102  -0.923 -0.13 -0.05    +0.194 C 
DOCKED: ATOM      3  C   UNL d   1       5.290 -18.224  -0.480 -0.11 -0.04    +0.194 C 
DOCKED: ATOM      4  C   UNL d   1       4.969 -18.186   1.012 -0.15 -0.04    +0.194 C 
DOCKED: ATOM      5  C   UNL d   1       6.191 -18.018   1.906 -0.08 -0.03    +0.194 C 
DOCKED: ATOM      6  C   UNL d   1       7.164 -16.938   1.429 -0.12 -0.03    +0.194 C 
DOCKED: ENDROOT
DOCKED: BRANCH   1   7
DOCKED: ATOM      7  O   UNL d   1       8.233 -15.880  -0.421 -0.22 +0.04    -0.278 OA
DOCKED: BRANCH   7   8
DOCKED: ATOM      8  P   UNL d   1       8.928 -15.835  -1.859 +0.10 -0.18    +0.473 P 
DOCKED: ATOM      9  O   UNL d   1      10.416 -15.790  -1.839 -0.46 +0.09    -0.228 OA
DOCKED: BRANCH   8  10
DOCKED: ATOM     10  O   UNL d   1       8.349 -17.118  -2.609 -0.03 +0.10    -0.303 OA
DOCKED: ATOM     11  H   UNL d   1       7.899 -16.842  -3.429 +0.04 -0.09    +0.222 HD
DOCKED: ENDBRANCH   8  10
DOCKED: BRANCH   8  12
DOCKED: ATOM     12  O   UNL d   1       8.208 -14.646  -2.629 -0.31 +0.34    -0.303 OA
DOCKED: ATOM     13  H   UNL d   1       8.621 -14.444  -3.499 -0.50 -0.48    +0.222 HD
DOCKED: ENDBRANCH   8  12
DOCKED: ENDBRANCH   7   8
DOCKED: ENDBRANCH   1   7
DOCKED: BRANCH   2  14
DOCKED: ATOM     14  O   UNL d   1       5.539 -15.853  -0.812 -0.21 +0.10    -0.278 OA
DOCKED: BRANCH  14  15
DOCKED: ATOM     15  P   UNL d   1       5.077 -15.166  -2.183 -0.17 -0.15    +0.473 P 
DOCKED: ATOM     16  O   UNL d   1       5.156 -13.673  -2.246 -0.96 +0.03    -0.228 OA
DOCKED: BRANCH  15  17
DOCKED: ATOM     17  O   UNL d   1       5.970 -15.879  -3.293 -0.09 +0.11    -0.303 OA
DOCKED: ATOM     18  H   UNL d   1       6.902 -15.593  -3.232 +0.08 -0.11    +0.222 HD
DOCKED: ENDBRANCH  15  17
DOCKED: BRANCH  15  19
DOCKED: ATOM     19  O   UNL d   1       3.644 -15.790  -2.476 -0.19 +0.12    -0.303 OA
DOCKED: ATOM     20  H   UNL d   1       3.454 -16.547  -1.891 -0.28 -0.10    +0.222 HD
DOCKED: ENDBRANCH  15  19
DOCKED: ENDBRANCH  14  15
DOCKED: ENDBRANCH   2  14
DOCKED: BRANCH   6  21
DOCKED: ATOM     21  O   UNL d   1       8.382 -17.135   2.143 -0.03 +0.04    -0.278 OA
DOCKED: BRANCH  21  22
DOCKED: ATOM     22  P   UNL d   1       8.708 -16.232   3.417 -0.03 -0.06    +0.473 P 
DOCKED: ATOM     23  O   UNL d   1       7.581 -15.511   4.077 -0.08 +0.04    -0.228 OA
DOCKED: BRANCH  22  24
DOCKED: ATOM     24  O   UNL d   1       9.484 -17.257   4.354 -0.00 +0.03    -0.303 OA
DOCKED: ATOM     25  H   UNL d   1       8.918 -18.063   4.466 +0.01 -0.02    +0.222 HD
DOCKED: ENDBRANCH  22  24
DOCKED: BRANCH  22  26
DOCKED: ATOM     26  O   UNL d   1       9.903 -15.315   2.868 -0.09 +0.05    -0.303 OA
DOCKED: ATOM     27  H   UNL d   1       9.768 -15.148   1.913 +0.05 -0.04    +0.222 HD
DOCKED: ENDBRANCH  22  26
DOCKED: ENDBRANCH  21  22
DOCKED: ENDBRANCH   6  21
DOCKED: BRANCH   3  28
DOCKED: ATOM     28  O   UNL d   1       4.046 -18.023  -1.139 -0.16 +0.07    -0.278 OA
DOCKED: BRANCH  28  29
DOCKED: ATOM     29  P   UNL d   1       3.590 -19.000  -2.311 -0.08 -0.07    +0.473 P 
DOCKED: ATOM     30  O   UNL d   1       4.340 -20.279  -2.408 -0.02 +0.03    -0.228 OA
DOCKED: BRANCH  29  31
DOCKED: ATOM     31  O   UNL d   1       2.024 -19.099  -1.998 -0.17 +0.02    -0.303 OA
DOCKED: ATOM     32  H   UNL d   1       1.908 -19.422  -1.075 +0.06 +0.01    +0.222 HD
DOCKED: ENDBRANCH  29  31
DOCKED: BRANCH  29  33
DOCKED: ATOM     33  O   UNL d   1       3.635 -18.042  -3.582 -0.08 +0.07    -0.303 OA
DOCKED: ATOM     34  H   UNL d   1       4.419 -17.445  -3.506 +0.08 -0.06    +0.222 HD
DOCKED: ENDBRANCH  29  33
DOCKED: ENDBRANCH  28  29
DOCKED: ENDBRANCH   3  28
DOCKED: BRANCH   5  35
DOCKED: ATOM     35  O   UNL d   1       5.689 -17.600   3.174 -0.07 +0.05    -0.278 OA
DOCKED: BRANCH  35  36
DOCKED: ATOM     36  P   UNL d   1       5.587 -18.639   4.381 -0.02 -0.06    +0.473 P 
DOCKED: ATOM     37  O   UNL d   1       4.314 -18.593   5.164 -0.07 +0.04    -0.228 OA
DOCKED: BRANCH  36  38
DOCKED: ATOM     38  O   UNL d   1       5.852 -20.024   3.642 -0.01 +0.03    -0.303 OA
DOCKED: ATOM     39  H   UNL d   1       5.218 -20.119   2.899 +0.03 -0.02    +0.222 HD
DOCKED: ENDBRANCH  36  38
DOCKED: BRANCH  36  40
DOCKED: ATOM     40  O   UNL d   1       6.936 -18.366   5.178 -0.00 +0.03    -0.303 OA
DOCKED: ATOM     41  H   UNL d   1       7.387 -17.551   4.863 +0.03 -0.03    +0.222 HD
DOCKED: ENDBRANCH  36  40
DOCKED: ENDBRANCH  35  36
DOCKED: ENDBRANCH   5  35
DOCKED: BRANCH   4  42
DOCKED: ATOM     42  O   UNL d   1       4.377 -19.447   1.341 -0.08 +0.03    -0.278 OA
DOCKED: BRANCH  42  43
DOCKED: ATOM     43  P   UNL d   1       2.920 -19.469   1.990 -0.14 -0.03    +0.473 P 
DOCKED: ATOM     44  O   UNL d   1       1.772 -19.776   1.092 -0.12 -0.02    -0.228 OA
DOCKED: BRANCH  43  45
DOCKED: ATOM     45  O   UNL d   1       3.092 -20.489   3.199 -0.05 +0.02    -0.303 OA
DOCKED: ATOM     46  H   UNL d   1       3.672 -20.124   3.897 +0.03 -0.02    +0.222 HD
DOCKED: ENDBRANCH  43  45
DOCKED: BRANCH  43  47
DOCKED: ATOM     47  O   UNL d   1       2.840 -18.064   2.759 +0.02 +0.09    -0.303 OA
DOCKED: ATOM     48  H   UNL d   1       3.535 -18.034   3.449 -0.17 -0.07    +0.222 HD
DOCKED: ENDBRANCH  43  47
DOCKED: ENDBRANCH  42  43
DOCKED: ENDBRANCH   4  42
DOCKED: TORSDOF 24
DOCKED: TER
DOCKED: ENDMDL
________________________________________________________________________________


	BEGINNING GENETIC ALGORITHM DOCKING 68 of 100
Run: 68 Seed: 86452263 2134245499 [ Run 68 of 100 GA/GALS ]
Beginning LAMARCKIAN GENETIC ALGORITHM (LGA), with a maximum of 25000000 energy evaluations.

Final-Value: -19.406


	FINAL GENETIC ALGORITHM DOCKED STATE
	_______________________________________________


Detailed state:  trans -18.716 -7.920 10.576 quatxyzw 0.726307 -0.685262 -0.035647 0.040302 center 0.035 0.082 -0.065 ntor 24 117.4637 30.8929 -80.4385 -154.7079 98.5230 133.1991 -73.8060 163.5843 42.1947 84.1554 4.7489 180.0000 165.7254 46.3274 -103.7139 138.2483 131.1664 150.9822 61.4288 24.9548 -15.3226 9.4076 -8.1311 -16.3188
State:	-18.716  -7.920  10.576   0.727 -0.686 -0.036 175.380    117.46   30.89  -80.44 -154.71   98.52  133.20  -73.81  163.58   42.19   84.16    4.75  180.00  165.73   46.33 -103.71  138.25  131.17  150.98   61.43   24.95  -15.32    9.41   -8.13  -16.32

DOCKED: MODEL       68
DOCKED: USER    Run = 68
DOCKED: USER    DPF = D:/Protein_go_brrr/autodock/final/mut_Y35F/IHP/dock.dpf
DOCKED: USER  
DOCKED: USER    Estimated Free Energy of Binding    =   +0.83 kcal/mol  [=(1)+(2)+(3)-(4)]
DOCKED: USER    
DOCKED: USER    (1) Final Intermolecular Energy     =   -6.33 kcal/mol
DOCKED: USER        vdW + Hbond + desolv Energy     =   -5.49 kcal/mol
DOCKED: USER        Electrostatic Energy            =   -0.83 kcal/mol
DOCKED: USER    (2) Final Total Internal Energy     =  -13.08 kcal/mol
DOCKED: USER    (3) Torsional Free Energy           =   +7.16 kcal/mol
DOCKED: USER    (4) Unbound System's Energy  [=(2)] =  -13.08 kcal/mol
DOCKED: USER    
DOCKED: USER    
DOCKED: USER    NEWDPF move IHP_ideal_opt.pdbqt
DOCKED: USER    NEWDPF about 0.035000 0.082000 -0.065000
DOCKED: USER    NEWDPF tran0 -18.716139 -7.919659 10.576194
DOCKED: USER    NEWDPF quaternion0 0.726307 -0.685262 -0.035647 0.040302
DOCKED: USER    NEWDPF axisangle0 0.726897 -0.685819 -0.035676 175.380480
DOCKED: USER    NEWDPF quat0 0.726897 -0.685819 -0.035676 175.380480
DOCKED: USER    NEWDPF dihe0 117.46 30.89 -80.44 -154.71 98.52 133.20 -73.81 163.58 42.19 84.16 4.75 180.00 165.73 46.33 -103.71 138.25 131.17 150.98 61.43 24.95 -15.32 9.41 -8.13 -16.32 
DOCKED: USER  keepresnum = 1 
DOCKED: USER  
DOCKED: REMARK  24 active torsions:
DOCKED: REMARK  status: ('A' for Active; 'I' for Inactive)
DOCKED: REMARK    1  A    between atoms: C_1  and  O_7 
DOCKED: REMARK    2  A    between atoms: C_2  and  O_12 
DOCKED: REMARK    3  A    between atoms: C_3  and  O_17 
DOCKED: REMARK    4  A    between atoms: C_4  and  O_22 
DOCKED: REMARK    5  A    between atoms: C_5  and  O_27 
DOCKED: REMARK    6  A    between atoms: C_6  and  O_32 
DOCKED: REMARK    7  A    between atoms: O_7  and  P_8 
DOCKED: REMARK    8  A    between atoms: P_8  and  O_10 
DOCKED: REMARK    9  A    between atoms: P_8  and  O_11 
DOCKED: REMARK   10  A    between atoms: O_12  and  P_13 
DOCKED: REMARK   11  A    between atoms: P_13  and  O_15 
DOCKED: REMARK   12  A    between atoms: P_13  and  O_16 
DOCKED: REMARK   13  A    between atoms: O_17  and  P_18 
DOCKED: REMARK   14  A    between atoms: P_18  and  O_20 
DOCKED: REMARK   15  A    between atoms: P_18  and  O_21 
DOCKED: REMARK   16  A    between atoms: O_22  and  P_23 
DOCKED: REMARK   17  A    between atoms: P_23  and  O_25 
DOCKED: REMARK   18  A    between atoms: P_23  and  O_26 
DOCKED: REMARK   19  A    between atoms: O_27  and  P_28 
DOCKED: REMARK   20  A    between atoms: P_28  and  O_30 
DOCKED: REMARK   21  A    between atoms: P_28  and  O_31 
DOCKED: REMARK   22  A    between atoms: O_32  and  P_33 
DOCKED: REMARK   23  A    between atoms: P_33  and  O_35 
DOCKED: REMARK   24  A    between atoms: P_33  and  O_36 
DOCKED: USER                              x       y       z     vdW  Elec       q    Type
DOCKED: USER                           _______ _______ _______ _____ _____    ______ ____
DOCKED: ROOT
DOCKED: ATOM      1  C   UNL d   1     -17.754  -9.027   9.664 -0.20 -0.02    +0.194 C 
DOCKED: ATOM      2  C   UNL d   1     -17.025  -7.782  10.172 -0.13 -0.03    +0.194 C 
DOCKED: ATOM      3  C   UNL d   1     -17.868  -6.518   9.988 -0.12 -0.03    +0.194 C 
DOCKED: ATOM      4  C   UNL d   1     -19.274  -6.642  10.570 -0.04 -0.02    +0.194 C 
DOCKED: ATOM      5  C   UNL d   1     -19.995  -7.926  10.182 -0.04 -0.01    +0.194 C 
DOCKED: ATOM      6  C   UNL d   1     -19.132  -9.184  10.307 -0.09 -0.01    +0.194 C 
DOCKED: ENDROOT
DOCKED: BRANCH   1   7
DOCKED: ATOM      7  O   UNL d   1     -16.982 -10.175  10.027 -0.18 -0.01    -0.278 OA
DOCKED: BRANCH   7   8
DOCKED: ATOM      8  P   UNL d   1     -15.499 -10.305   9.449 -0.23 +0.10    +0.473 P 
DOCKED: ATOM      9  O   UNL d   1     -15.082 -11.687   9.087 -0.35 -0.06    -0.228 OA
DOCKED: BRANCH   8  10
DOCKED: ATOM     10  O   UNL d   1     -15.476  -9.298   8.212 -0.37 +0.03    -0.303 OA
DOCKED: ATOM     11  H   UNL d   1     -16.317  -9.361   7.723 -0.24 -0.10    +0.222 HD
DOCKED: ENDBRANCH   8  10
DOCKED: BRANCH   8  12
DOCKED: ATOM     12  O   UNL d   1     -14.577  -9.556  10.504 -0.08 -0.23    -0.303 OA
DOCKED: ATOM     13  H   UNL d   1     -15.086  -8.998  11.134 +0.07 +0.10    +0.222 HD
DOCKED: ENDBRANCH   8  12
DOCKED: ENDBRANCH   7   8
DOCKED: ENDBRANCH   1   7
DOCKED: BRANCH   2  14
DOCKED: ATOM     14  O   UNL d   1     -16.743  -7.943  11.568 -0.04 +0.04    -0.278 OA
DOCKED: BRANCH  14  15
DOCKED: ATOM     15  P   UNL d   1     -15.528  -7.081  12.157 +0.01 -0.27    +0.473 P 
DOCKED: ATOM     16  O   UNL d   1     -15.889  -5.853  12.932 -0.06 +0.23    -0.228 OA
DOCKED: BRANCH  15  17
DOCKED: ATOM     17  O   UNL d   1     -14.691  -8.129  13.016 -0.13 +0.03    -0.303 OA
DOCKED: ATOM     18  H   UNL d   1     -13.948  -7.693  13.476 -0.35 -0.17    +0.222 HD
DOCKED: ENDBRANCH  15  17
DOCKED: BRANCH  15  19
DOCKED: ATOM     19  O   UNL d   1     -14.567  -6.849  10.911 -0.23 +0.16    -0.303 OA
DOCKED: ATOM     20  H   UNL d   1     -14.131  -5.977  10.950 -0.46 -0.39    +0.222 HD
DOCKED: ENDBRANCH  15  19
DOCKED: ENDBRANCH  14  15
DOCKED: ENDBRANCH   2  14
DOCKED: BRANCH   6  21
DOCKED: ATOM     21  O   UNL d   1     -19.809 -10.220   9.600 -0.11 +0.01    -0.278 OA
DOCKED: BRANCH  21  22
DOCKED: ATOM     22  P   UNL d   1     -20.313 -11.515  10.383 +0.01 -0.02    +0.473 P 
DOCKED: ATOM     23  O   UNL d   1     -19.296 -12.515  10.820 -0.09 +0.00    -0.228 OA
DOCKED: BRANCH  22  24
DOCKED: ATOM     24  O   UNL d   1     -21.166 -10.871  11.562 -0.02 +0.01    -0.303 OA
DOCKED: ATOM     25  H   UNL d   1     -21.576 -10.035  11.225 +0.02 -0.01    +0.222 HD
DOCKED: ENDBRANCH  22  24
DOCKED: BRANCH  22  26
DOCKED: ATOM     26  O   UNL d   1     -21.460 -12.061   9.405 -0.07 +0.02    -0.303 OA
DOCKED: ATOM     27  H   UNL d   1     -21.978 -11.305   9.063 +0.03 -0.02    +0.222 HD
DOCKED: ENDBRANCH  22  26
DOCKED: ENDBRANCH  21  22
DOCKED: ENDBRANCH   6  21
DOCKED: BRANCH   3  28
DOCKED: ATOM     28  O   UNL d   1     -17.244  -5.476  10.728 -0.09 +0.09    -0.278 OA
DOCKED: BRANCH  28  29
DOCKED: ATOM     29  P   UNL d   1     -16.737  -4.158   9.990 -0.26 -0.15    +0.473 P 
DOCKED: ATOM     30  O   UNL d   1     -17.476  -2.913  10.324 -0.29 +0.03    -0.228 OA
DOCKED: BRANCH  29  31
DOCKED: ATOM     31  O   UNL d   1     -15.183  -4.205  10.370 -0.10 +0.33    -0.303 OA
DOCKED: ATOM     32  H   UNL d   1     -15.075  -4.758  11.178 -0.40 -0.48    +0.222 HD
DOCKED: ENDBRANCH  29  31
DOCKED: BRANCH  29  33
DOCKED: ATOM     33  O   UNL d   1     -16.740  -4.608   8.463 -0.40 +0.02    -0.303 OA
DOCKED: ATOM     34  H   UNL d   1     -15.917  -4.274   8.028 -0.38 -0.02    +0.222 HD
DOCKED: ENDBRANCH  29  33
DOCKED: ENDBRANCH  28  29
DOCKED: ENDBRANCH   3  28
DOCKED: BRANCH   5  35
DOCKED: ATOM     35  O   UNL d   1     -21.071  -8.061  11.108 -0.01 +0.01    -0.278 OA
DOCKED: BRANCH  35  36
DOCKED: ATOM     36  P   UNL d   1     -22.575  -8.161  10.585 +0.00 -0.02    +0.473 P 
DOCKED: ATOM     37  O   UNL d   1     -23.609  -8.404  11.638 -0.00 +0.01    -0.228 OA
DOCKED: BRANCH  36  38
DOCKED: ATOM     38  O   UNL d   1     -22.743  -6.780   9.809 -0.00 +0.01    -0.303 OA
DOCKED: ATOM     39  H   UNL d   1     -22.144  -6.113  10.209 +0.02 -0.01    +0.222 HD
DOCKED: ENDBRANCH  36  38
DOCKED: BRANCH  36  40
DOCKED: ATOM     40  O   UNL d   1     -22.460  -9.241   9.424 -0.02 +0.02    -0.303 OA
DOCKED: ATOM     41  H   UNL d   1     -21.885  -9.995   9.683 +0.03 -0.01    +0.222 HD
DOCKED: ENDBRANCH  36  40
DOCKED: ENDBRANCH  35  36
DOCKED: ENDBRANCH   5  35
DOCKED: BRANCH   4  42
DOCKED: ATOM     42  O   UNL d   1     -20.039  -5.553  10.043 -0.05 +0.01    -0.278 OA
DOCKED: BRANCH  42  43
DOCKED: ATOM     43  P   UNL d   1     -20.828  -4.604  11.053 -0.02 -0.02    +0.473 P 
DOCKED: ATOM     44  O   UNL d   1     -21.899  -3.738  10.486 -0.04 +0.00    -0.228 OA
DOCKED: BRANCH  43  45
DOCKED: ATOM     45  O   UNL d   1     -21.336  -5.624  12.164 -0.00 +0.01    -0.303 OA
DOCKED: ATOM     46  H   UNL d   1     -22.015  -6.231  11.809 +0.01 -0.01    +0.222 HD
DOCKED: ENDBRANCH  43  45
DOCKED: BRANCH  43  47
DOCKED: ATOM     47  O   UNL d   1     -19.654  -3.836  11.828 -0.05 +0.02    -0.303 OA
DOCKED: ATOM     48  H   UNL d   1     -18.788  -4.154  11.498 +0.06 -0.03    +0.222 HD
DOCKED: ENDBRANCH  43  47
DOCKED: ENDBRANCH  42  43
DOCKED: ENDBRANCH   4  42
DOCKED: TORSDOF 24
DOCKED: TER
DOCKED: ENDMDL
________________________________________________________________________________


	BEGINNING GENETIC ALGORITHM DOCKING 69 of 100
Run: 69 Seed: 1251108192 1503939554 [ Run 69 of 100 GA/GALS ]
Beginning LAMARCKIAN GENETIC ALGORITHM (LGA), with a maximum of 25000000 energy evaluations.

Final-Value: -17.125


	FINAL GENETIC ALGORITHM DOCKED STATE
	_______________________________________________


Detailed state:  trans 6.409 -16.679 -6.316 quatxyzw -0.302280 -0.585237 -0.741405 -0.128229 center 0.035 0.082 -0.065 ntor 24 57.4755 88.7940 44.8481 71.5297 -26.3656 180.0000 -4.7242 -72.8800 -67.8861 122.9311 73.1551 -46.2188 -94.2338 164.3465 175.4503 -38.5625 6.6302 105.0174 -135.8974 -6.8985 -175.6894 136.6236 143.3285 151.0784
State:	  6.409 -16.679  -6.316  -0.305 -0.590 -0.748 -165.266     57.48   88.79   44.85   71.53  -26.37  180.00   -4.72  -72.88  -67.89  122.93   73.16  -46.22  -94.23  164.35  175.45  -38.56    6.63  105.02 -135.90   -6.90 -175.69  136.62  143.33  151.08

DOCKED: MODEL       69
DOCKED: USER    Run = 69
DOCKED: USER    DPF = D:/Protein_go_brrr/autodock/final/mut_Y35F/IHP/dock.dpf
DOCKED: USER  
DOCKED: USER    Estimated Free Energy of Binding    =   +1.41 kcal/mol  [=(1)+(2)+(3)-(4)]
DOCKED: USER    
DOCKED: USER    (1) Final Intermolecular Energy     =   -5.75 kcal/mol
DOCKED: USER        vdW + Hbond + desolv Energy     =   -5.12 kcal/mol
DOCKED: USER        Electrostatic Energy            =   -0.63 kcal/mol
DOCKED: USER    (2) Final Total Internal Energy     =  -11.38 kcal/mol
DOCKED: USER    (3) Torsional Free Energy           =   +7.16 kcal/mol
DOCKED: USER    (4) Unbound System's Energy  [=(2)] =  -11.38 kcal/mol
DOCKED: USER    
DOCKED: USER    
DOCKED: USER    NEWDPF move IHP_ideal_opt.pdbqt
DOCKED: USER    NEWDPF about 0.035000 0.082000 -0.065000
DOCKED: USER    NEWDPF tran0 6.408889 -16.678821 -6.316269
DOCKED: USER    NEWDPF quaternion0 -0.302280 -0.585237 -0.741405 -0.128229
DOCKED: USER    NEWDPF axisangle0 -0.304796 -0.590109 -0.747577 -165.265498
DOCKED: USER    NEWDPF quat0 -0.304796 -0.590109 -0.747577 -165.265498
DOCKED: USER    NEWDPF dihe0 57.48 88.79 44.85 71.53 -26.37 180.00 -4.72 -72.88 -67.89 122.93 73.16 -46.22 -94.23 164.35 175.45 -38.56 6.63 105.02 -135.90 -6.90 -175.69 136.62 143.33 151.08 
DOCKED: USER  keepresnum = 1 
DOCKED: USER  
DOCKED: REMARK  24 active torsions:
DOCKED: REMARK  status: ('A' for Active; 'I' for Inactive)
DOCKED: REMARK    1  A    between atoms: C_1  and  O_7 
DOCKED: REMARK    2  A    between atoms: C_2  and  O_12 
DOCKED: REMARK    3  A    between atoms: C_3  and  O_17 
DOCKED: REMARK    4  A    between atoms: C_4  and  O_22 
DOCKED: REMARK    5  A    between atoms: C_5  and  O_27 
DOCKED: REMARK    6  A    between atoms: C_6  and  O_32 
DOCKED: REMARK    7  A    between atoms: O_7  and  P_8 
DOCKED: REMARK    8  A    between atoms: P_8  and  O_10 
DOCKED: REMARK    9  A    between atoms: P_8  and  O_11 
DOCKED: REMARK   10  A    between atoms: O_12  and  P_13 
DOCKED: REMARK   11  A    between atoms: P_13  and  O_15 
DOCKED: REMARK   12  A    between atoms: P_13  and  O_16 
DOCKED: REMARK   13  A    between atoms: O_17  and  P_18 
DOCKED: REMARK   14  A    between atoms: P_18  and  O_20 
DOCKED: REMARK   15  A    between atoms: P_18  and  O_21 
DOCKED: REMARK   16  A    between atoms: O_22  and  P_23 
DOCKED: REMARK   17  A    between atoms: P_23  and  O_25 
DOCKED: REMARK   18  A    between atoms: P_23  and  O_26 
DOCKED: REMARK   19  A    between atoms: O_27  and  P_28 
DOCKED: REMARK   20  A    between atoms: P_28  and  O_30 
DOCKED: REMARK   21  A    between atoms: P_28  and  O_31 
DOCKED: REMARK   22  A    between atoms: O_32  and  P_33 
DOCKED: REMARK   23  A    between atoms: P_33  and  O_35 
DOCKED: REMARK   24  A    between atoms: P_33  and  O_36 
DOCKED: USER                              x       y       z     vdW  Elec       q    Type
DOCKED: USER                           _______ _______ _______ _____ _____    ______ ____
DOCKED: ROOT
DOCKED: ATOM      1  C   UNL d   1       5.179 -15.475  -6.164 -0.20 -0.07    +0.194 C 
DOCKED: ATOM      2  C   UNL d   1       5.610 -15.802  -7.595 -0.14 -0.07    +0.194 C 
DOCKED: ATOM      3  C   UNL d   1       7.131 -15.930  -7.713 -0.05 -0.08    +0.194 C 
DOCKED: ATOM      4  C   UNL d   1       7.733 -16.895  -6.694 -0.01 -0.07    +0.194 C 
DOCKED: ATOM      5  C   UNL d   1       7.241 -16.679  -5.268 -0.03 -0.08    +0.194 C 
DOCKED: ATOM      6  C   UNL d   1       5.727 -16.488  -5.158 -0.08 -0.06    +0.194 C 
DOCKED: ENDROOT
DOCKED: BRANCH   1   7
DOCKED: ATOM      7  O   UNL d   1       3.752 -15.543  -6.102 -0.22 +0.12    -0.278 OA
DOCKED: BRANCH   7   8
DOCKED: ATOM      8  P   UNL d   1       3.081 -16.847  -5.468 -0.14 -0.17    +0.473 P 
DOCKED: ATOM      9  O   UNL d   1       3.699 -18.137  -5.877 -0.07 +0.07    -0.228 OA
DOCKED: BRANCH   8  10
DOCKED: ATOM     10  O   UNL d   1       3.147 -16.590  -3.895 -0.18 +0.09    -0.303 OA
DOCKED: ATOM     11  H   UNL d   1       3.897 -17.085  -3.514 +0.09 -0.06    +0.222 HD
DOCKED: ENDBRANCH   8  10
DOCKED: BRANCH   8  12
DOCKED: ATOM     12  O   UNL d   1       1.527 -16.696  -5.764 -0.26 +0.16    -0.303 OA
DOCKED: ATOM     13  H   UNL d   1       1.337 -16.391  -6.679 -0.39 -0.17    +0.222 HD
DOCKED: ENDBRANCH   8  12
DOCKED: ENDBRANCH   7   8
DOCKED: ENDBRANCH   1   7
DOCKED: BRANCH   2  14
DOCKED: ATOM     14  O   UNL d   1       5.015 -17.044  -7.990 -0.05 +0.08    -0.278 OA
DOCKED: BRANCH  14  15
DOCKED: ATOM     15  P   UNL d   1       4.141 -17.023  -9.332 -0.04 -0.14    +0.473 P 
DOCKED: ATOM     16  O   UNL d   1       2.879 -17.827  -9.323 -0.08 +0.07    -0.228 OA
DOCKED: BRANCH  15  17
DOCKED: ATOM     17  O   UNL d   1       3.885 -15.475  -9.604 -0.16 +0.13    -0.303 OA
DOCKED: ATOM     18  H   UNL d   1       3.536 -15.031  -8.807 -0.42 -0.15    +0.222 HD
DOCKED: ENDBRANCH  15  17
DOCKED: BRANCH  15  19
DOCKED: ATOM     19  O   UNL d   1       5.176 -17.384 -10.485 -0.01 +0.06    -0.303 OA
DOCKED: ATOM     20  H   UNL d   1       6.020 -17.709 -10.123 +0.02 -0.04    +0.222 HD
DOCKED: ENDBRANCH  15  19
DOCKED: ENDBRANCH  14  15
DOCKED: ENDBRANCH   2  14
DOCKED: BRANCH   6  21
DOCKED: ATOM     21  O   UNL d   1       5.471 -15.966  -3.856 -0.10 +0.09    -0.278 OA
DOCKED: BRANCH  21  22
DOCKED: ATOM     22  P   UNL d   1       5.644 -14.404  -3.582 -0.22 -0.19    +0.473 P 
DOCKED: ATOM     23  O   UNL d   1       5.946 -13.961  -2.190 -0.66 +0.06    -0.228 OA
DOCKED: BRANCH  22  24
DOCKED: ATOM     24  O   UNL d   1       6.742 -14.003  -4.663 -0.60 +0.26    -0.303 OA
DOCKED: ATOM     25  H   UNL d   1       7.633 -14.071  -4.236 -0.22 -0.36    +0.222 HD
DOCKED: ENDBRANCH  22  24
DOCKED: BRANCH  22  26
DOCKED: ATOM     26  O   UNL d   1       4.305 -13.809  -4.234 -0.51 +0.06    -0.303 OA
DOCKED: ATOM     27  H   UNL d   1       3.731 -14.548  -4.520 +0.13 -0.06    +0.222 HD
DOCKED: ENDBRANCH  22  26
DOCKED: ENDBRANCH  21  22
DOCKED: ENDBRANCH   6  21
DOCKED: BRANCH   3  28
DOCKED: ATOM     28  O   UNL d   1       7.415 -16.499  -8.984 -0.01 +0.08    -0.278 OA
DOCKED: BRANCH  28  29
DOCKED: ATOM     29  P   UNL d   1       8.037 -17.961  -9.091 +0.01 -0.09    +0.473 P 
DOCKED: ATOM     30  O   UNL d   1       9.399 -18.121  -8.520 +0.00 +0.04    -0.228 OA
DOCKED: BRANCH  29  31
DOCKED: ATOM     31  O   UNL d   1       6.862 -18.814  -8.416 +0.00 +0.05    -0.303 OA
DOCKED: ATOM     32  H   UNL d   1       6.004 -18.527  -8.804 +0.01 -0.04    +0.222 HD
DOCKED: ENDBRANCH  29  31
DOCKED: BRANCH  29  33
DOCKED: ATOM     33  O   UNL d   1       7.863 -18.287 -10.640 +0.00 +0.04    -0.303 OA
DOCKED: ATOM     34  H   UNL d   1       7.243 -17.627 -11.039 +0.01 -0.03    +0.222 HD
DOCKED: ENDBRANCH  29  33
DOCKED: ENDBRANCH  28  29
DOCKED: ENDBRANCH   3  28
DOCKED: BRANCH   5  35
DOCKED: ATOM     35  O   UNL d   1       7.567 -17.874  -4.561 -0.00 +0.08    -0.278 OA
DOCKED: BRANCH  35  36
DOCKED: ATOM     36  P   UNL d   1       6.569 -19.117  -4.581 +0.01 -0.09    +0.473 P 
DOCKED: ATOM     37  O   UNL d   1       6.112 -19.557  -5.936 -0.00 +0.04    -0.228 OA
DOCKED: BRANCH  36  38
DOCKED: ATOM     38  O   UNL d   1       7.401 -20.216  -3.783 +0.00 +0.04    -0.303 OA
DOCKED: ATOM     39  H   UNL d   1       7.306 -21.082  -4.235 +0.00 -0.02    +0.222 HD
DOCKED: ENDBRANCH  36  38
DOCKED: BRANCH  36  40
DOCKED: ATOM     40  O   UNL d   1       5.444 -18.666  -3.551 -0.01 +0.06    -0.303 OA
DOCKED: ATOM     41  H   UNL d   1       4.790 -18.062  -3.967 +0.06 -0.05    +0.222 HD
DOCKED: ENDBRANCH  36  40
DOCKED: ENDBRANCH  35  36
DOCKED: ENDBRANCH   5  35
DOCKED: BRANCH   4  42
DOCKED: ATOM     42  O   UNL d   1       9.146 -16.665  -6.691 -0.01 +0.12    -0.278 OA
DOCKED: BRANCH  42  43
DOCKED: ATOM     43  P   UNL d   1       9.684 -15.166  -6.791 -0.03 -0.42    +0.473 P 
DOCKED: ATOM     44  O   UNL d   1      10.993 -14.862  -6.148 -0.09 +0.23    -0.228 OA
DOCKED: BRANCH  43  45
DOCKED: ATOM     45  O   UNL d   1       9.648 -14.887  -8.357 -0.03 +0.18    -0.303 OA
DOCKED: ATOM     46  H   UNL d   1       9.320 -15.664  -8.852 +0.02 -0.09    +0.222 HD
DOCKED: ENDBRANCH  43  45
DOCKED: BRANCH  43  47
DOCKED: ATOM     47  O   UNL d   1       8.441 -14.296  -6.276 -0.09 +0.43    -0.303 OA
DOCKED: ATOM     48  H   UNL d   1       8.756 -13.636  -5.625 -0.35 -0.65    +0.222 HD
DOCKED: ENDBRANCH  43  47
DOCKED: ENDBRANCH  42  43
DOCKED: ENDBRANCH   4  42
DOCKED: TORSDOF 24
DOCKED: TER
DOCKED: ENDMDL
________________________________________________________________________________


	BEGINNING GENETIC ALGORITHM DOCKING 70 of 100
Run: 70 Seed: 678975095 871447423 [ Run 70 of 100 GA/GALS ]
Beginning LAMARCKIAN GENETIC ALGORITHM (LGA), with a maximum of 25000000 energy evaluations.

Final-Value: -16.889


	FINAL GENETIC ALGORITHM DOCKED STATE
	_______________________________________________


Detailed state:  trans 3.070 19.976 -7.875 quatxyzw 0.684656 0.441620 -0.430190 0.388785 center 0.035 0.082 -0.065 ntor 24 -137.3711 -7.2134 17.1116 130.2292 159.9873 106.1527 180.0000 -37.2321 96.2804 10.4175 -5.2009 -134.1972 -138.5572 -36.1571 -159.8213 54.9267 -132.1444 -74.1537 38.2643 -35.3877 22.1143 -37.4742 -44.2946 26.6834
State:	  3.070  19.976  -7.875   0.743  0.479 -0.467 134.242   -137.37   -7.21   17.11  130.23  159.99  106.15  180.00  -37.23   96.28   10.42   -5.20 -134.20 -138.56  -36.16 -159.82   54.93 -132.14  -74.15   38.26  -35.39   22.11  -37.47  -44.29   26.68

DOCKED: MODEL       70
DOCKED: USER    Run = 70
DOCKED: USER    DPF = D:/Protein_go_brrr/autodock/final/mut_Y35F/IHP/dock.dpf
DOCKED: USER  
DOCKED: USER    Estimated Free Energy of Binding    =   +3.74 kcal/mol  [=(1)+(2)+(3)-(4)]
DOCKED: USER    
DOCKED: USER    (1) Final Intermolecular Energy     =   -3.42 kcal/mol
DOCKED: USER        vdW + Hbond + desolv Energy     =   -2.95 kcal/mol
DOCKED: USER        Electrostatic Energy            =   -0.47 kcal/mol
DOCKED: USER    (2) Final Total Internal Energy     =  -13.47 kcal/mol
DOCKED: USER    (3) Torsional Free Energy           =   +7.16 kcal/mol
DOCKED: USER    (4) Unbound System's Energy  [=(2)] =  -13.47 kcal/mol
DOCKED: USER    
DOCKED: USER    
DOCKED: USER    NEWDPF move IHP_ideal_opt.pdbqt
DOCKED: USER    NEWDPF about 0.035000 0.082000 -0.065000
DOCKED: USER    NEWDPF tran0 3.069514 19.976223 -7.875278
DOCKED: USER    NEWDPF quaternion0 0.684656 0.441620 -0.430190 0.388785
DOCKED: USER    NEWDPF axisangle0 0.743118 0.479330 -0.466924 134.242190
DOCKED: USER    NEWDPF quat0 0.743118 0.479330 -0.466924 134.242190
DOCKED: USER    NEWDPF dihe0 -137.37 -7.21 17.11 130.23 159.99 106.15 180.00 -37.23 96.28 10.42 -5.20 -134.20 -138.56 -36.16 -159.82 54.93 -132.14 -74.15 38.26 -35.39 22.11 -37.47 -44.29 26.68 
DOCKED: USER  keepresnum = 1 
DOCKED: USER  
DOCKED: REMARK  24 active torsions:
DOCKED: REMARK  status: ('A' for Active; 'I' for Inactive)
DOCKED: REMARK    1  A    between atoms: C_1  and  O_7 
DOCKED: REMARK    2  A    between atoms: C_2  and  O_12 
DOCKED: REMARK    3  A    between atoms: C_3  and  O_17 
DOCKED: REMARK    4  A    between atoms: C_4  and  O_22 
DOCKED: REMARK    5  A    between atoms: C_5  and  O_27 
DOCKED: REMARK    6  A    between atoms: C_6  and  O_32 
DOCKED: REMARK    7  A    between atoms: O_7  and  P_8 
DOCKED: REMARK    8  A    between atoms: P_8  and  O_10 
DOCKED: REMARK    9  A    between atoms: P_8  and  O_11 
DOCKED: REMARK   10  A    between atoms: O_12  and  P_13 
DOCKED: REMARK   11  A    between atoms: P_13  and  O_15 
DOCKED: REMARK   12  A    between atoms: P_13  and  O_16 
DOCKED: REMARK   13  A    between atoms: O_17  and  P_18 
DOCKED: REMARK   14  A    between atoms: P_18  and  O_20 
DOCKED: REMARK   15  A    between atoms: P_18  and  O_21 
DOCKED: REMARK   16  A    between atoms: O_22  and  P_23 
DOCKED: REMARK   17  A    between atoms: P_23  and  O_25 
DOCKED: REMARK   18  A    between atoms: P_23  and  O_26 
DOCKED: REMARK   19  A    between atoms: O_27  and  P_28 
DOCKED: REMARK   20  A    between atoms: P_28  and  O_30 
DOCKED: REMARK   21  A    between atoms: P_28  and  O_31 
DOCKED: REMARK   22  A    between atoms: O_32  and  P_33 
DOCKED: REMARK   23  A    between atoms: P_33  and  O_35 
DOCKED: REMARK   24  A    between atoms: P_33  and  O_36 
DOCKED: USER                              x       y       z     vdW  Elec       q    Type
DOCKED: USER                           _______ _______ _______ _____ _____    ______ ____
DOCKED: ROOT
DOCKED: ATOM      1  C   UNL d   1       2.392  21.547  -7.632 +0.00 +0.02    +0.194 C 
DOCKED: ATOM      2  C   UNL d   1       2.220  20.566  -6.471 -0.03 +0.04    +0.194 C 
DOCKED: ATOM      3  C   UNL d   1       1.826  19.171  -6.962 -0.05 +0.05    +0.194 C 
DOCKED: ATOM      4  C   UNL d   1       2.757  18.628  -8.043 -0.06 +0.05    +0.194 C 
DOCKED: ATOM      5  C   UNL d   1       3.049  19.617  -9.164 -0.01 +0.02    +0.194 C 
DOCKED: ATOM      6  C   UNL d   1       3.383  21.027  -8.675 -0.00 +0.02    +0.194 C 
DOCKED: ENDROOT
DOCKED: BRANCH   1   7
DOCKED: ATOM      7  O   UNL d   1       2.924  22.767  -7.110 +0.00 -0.01    -0.278 OA
DOCKED: BRANCH   7   8
DOCKED: ATOM      8  P   UNL d   1       1.909  23.835  -6.494 +0.01 -0.00    +0.473 P 
DOCKED: ATOM      9  O   UNL d   1       1.323  24.788  -7.476 +0.00 +0.01    -0.228 OA
DOCKED: BRANCH   8  10
DOCKED: ATOM     10  O   UNL d   1       0.813  22.945  -5.753 +0.00 +0.00    -0.303 OA
DOCKED: ATOM     11  H   UNL d   1       1.228  22.464  -5.013 +0.01 +0.00    +0.222 HD
DOCKED: ENDBRANCH   8  10
DOCKED: BRANCH   8  12
DOCKED: ATOM     12  O   UNL d   1       2.688  24.489  -5.273 +0.00 +0.00    -0.303 OA
DOCKED: ATOM     13  H   UNL d   1       3.049  23.823  -4.646 +0.00 +0.00    +0.222 HD
DOCKED: ENDBRANCH   8  12
DOCKED: ENDBRANCH   7   8
DOCKED: ENDBRANCH   1   7
DOCKED: BRANCH   2  14
DOCKED: ATOM     14  O   UNL d   1       3.458  20.465  -5.757 -0.35 -0.14    -0.278 OA
DOCKED: BRANCH  14  15
DOCKED: ATOM     15  P   UNL d   1       3.611  21.386  -4.456 -0.02 +0.12    +0.473 P 
DOCKED: ATOM     16  O   UNL d   1       2.347  21.911  -3.852 -0.00 -0.02    -0.228 OA
DOCKED: BRANCH  15  17
DOCKED: ATOM     17  O   UNL d   1       4.454  20.491  -3.444 -0.07 -0.13    -0.303 OA
DOCKED: ATOM     18  H   UNL d   1       3.889  19.821  -3.012 +0.03 +0.12    +0.222 HD
DOCKED: ENDBRANCH  15  17
DOCKED: BRANCH  15  19
DOCKED: ATOM     19  O   UNL d   1       4.680  22.488  -4.874 -0.00 -0.03    -0.303 OA
DOCKED: ATOM     20  H   UNL d   1       4.315  23.116  -5.525 +0.01 +0.01    +0.222 HD
DOCKED: ENDBRANCH  15  19
DOCKED: ENDBRANCH  14  15
DOCKED: ENDBRANCH   2  14
DOCKED: BRANCH   6  21
DOCKED: ATOM     21  O   UNL d   1       3.289  21.889  -9.807 +0.00 -0.01    -0.278 OA
DOCKED: BRANCH  21  22
DOCKED: ATOM     22  P   UNL d   1       4.497  21.968 -10.845 +0.00 +0.00    +0.473 P 
DOCKED: ATOM     23  O   UNL d   1       5.017  23.314 -11.222 +0.00 +0.00    -0.228 OA
DOCKED: BRANCH  22  24
DOCKED: ATOM     24  O   UNL d   1       5.569  21.003 -10.171 +0.00 -0.01    -0.303 OA
DOCKED: ATOM     25  H   UNL d   1       5.457  20.099 -10.561 +0.01 +0.01    +0.222 HD
DOCKED: ENDBRANCH  22  24
DOCKED: BRANCH  22  26
DOCKED: ATOM     26  O   UNL d   1       3.950  21.064 -12.051 +0.00 +0.00    -0.303 OA
DOCKED: ATOM     27  H   UNL d   1       3.900  20.131 -11.757 +0.00 +0.00    +0.222 HD
DOCKED: ENDBRANCH  22  26
DOCKED: ENDBRANCH  21  22
DOCKED: ENDBRANCH   6  21
DOCKED: BRANCH   3  28
DOCKED: ATOM     28  O   UNL d   1       1.960  18.277  -5.864 -0.46 -0.18    -0.278 OA
DOCKED: BRANCH  28  29
DOCKED: ATOM     29  P   UNL d   1       0.907  18.306  -4.670 +0.03 +0.07    +0.473 P 
DOCKED: ATOM     30  O   UNL d   1      -0.464  18.747  -5.035 -0.06 +0.07    -0.228 OA
DOCKED: BRANCH  29  31
DOCKED: ATOM     31  O   UNL d   1       1.067  16.811  -4.120 -0.30 -0.01    -0.303 OA
DOCKED: ATOM     32  H   UNL d   1       0.173  16.400  -4.064 -0.48 -0.47    +0.222 HD
DOCKED: ENDBRANCH  29  31
DOCKED: BRANCH  29  33
DOCKED: ATOM     33  O   UNL d   1       1.671  19.168  -3.571 -0.38 -0.12    -0.303 OA
DOCKED: ATOM     34  H   UNL d   1       2.361  19.717  -4.017 +0.02 +0.12    +0.222 HD
DOCKED: ENDBRANCH  29  33
DOCKED: ENDBRANCH  28  29
DOCKED: ENDBRANCH   3  28
DOCKED: BRANCH   5  35
DOCKED: ATOM     35  O   UNL d   1       4.207  19.117  -9.829 -0.01 -0.03    -0.278 OA
DOCKED: BRANCH  35  36
DOCKED: ATOM     36  P   UNL d   1       4.064  18.040 -10.996 -0.01 +0.03    +0.473 P 
DOCKED: ATOM     37  O   UNL d   1       4.045  16.610 -10.556 -0.13 -0.03    -0.228 OA
DOCKED: BRANCH  36  38
DOCKED: ATOM     38  O   UNL d   1       2.729  18.519 -11.720 -0.01 -0.00    -0.303 OA
DOCKED: ATOM     39  H   UNL d   1       2.611  19.482 -11.571 +0.01 +0.00    +0.222 HD
DOCKED: ENDBRANCH  36  38
DOCKED: BRANCH  36  40
DOCKED: ATOM     40  O   UNL d   1       5.220  18.470 -12.000 -0.01 -0.01    -0.303 OA
DOCKED: ATOM     41  H   UNL d   1       5.378  19.440 -11.979 +0.01 +0.00    +0.222 HD
DOCKED: ENDBRANCH  36  40
DOCKED: ENDBRANCH  35  36
DOCKED: ENDBRANCH   5  35
DOCKED: BRANCH   4  42
DOCKED: ATOM     42  O   UNL d   1       2.095  17.504  -8.634 -0.06 -0.04    -0.278 OA
DOCKED: BRANCH  42  43
DOCKED: ATOM     43  P   UNL d   1       2.228  16.077  -7.935 -0.12 +0.07    +0.473 P 
DOCKED: ATOM     44  O   UNL d   1       3.464  15.809  -7.148 -0.27 -0.13    -0.228 OA
DOCKED: BRANCH  43  45
DOCKED: ATOM     45  O   UNL d   1       0.884  15.976  -7.088 -0.13 +0.03    -0.303 OA
DOCKED: ATOM     46  H   UNL d   1       0.940  16.500  -6.264 +0.07 -0.02    +0.222 HD
DOCKED: ENDBRANCH  43  45
DOCKED: BRANCH  43  47
DOCKED: ATOM     47  O   UNL d   1       1.935  15.053  -9.133 -0.20 +0.00    -0.303 OA
DOCKED: ATOM     48  H   UNL d   1       2.427  15.341  -9.930 +0.06 +0.01    +0.222 HD
DOCKED: ENDBRANCH  43  47
DOCKED: ENDBRANCH  42  43
DOCKED: ENDBRANCH   4  42
DOCKED: TORSDOF 24
DOCKED: TER
DOCKED: ENDMDL
________________________________________________________________________________


	BEGINNING GENETIC ALGORITHM DOCKING 71 of 100
Run: 71 Seed: 2014832689 1151030690 [ Run 71 of 100 GA/GALS ]
Beginning LAMARCKIAN GENETIC ALGORITHM (LGA), with a maximum of 25000000 energy evaluations.

Final-Value: -18.241


	FINAL GENETIC ALGORITHM DOCKED STATE
	_______________________________________________


Detailed state:  trans -10.734 -19.476 -7.049 quatxyzw -0.756580 -0.382977 0.057431 0.526895 center 0.035 0.082 -0.065 ntor 24 138.3453 83.5902 52.5553 30.2796 23.9829 -106.8665 -164.6460 15.9823 67.1528 86.0723 107.4246 -133.5492 -46.4978 173.7341 -58.6895 54.0335 57.7057 96.5589 40.4994 -19.4372 174.8164 158.0477 27.1388 -43.2644
State:	-10.734 -19.476  -7.049  -0.890 -0.451  0.068 116.408    138.35   83.59   52.56   30.28   23.98 -106.87 -164.65   15.98   67.15   86.07  107.42 -133.55  -46.50  173.73  -58.69   54.03   57.71   96.56   40.50  -19.44  174.82  158.05   27.14  -43.26

DOCKED: MODEL       71
DOCKED: USER    Run = 71
DOCKED: USER    DPF = D:/Protein_go_brrr/autodock/final/mut_Y35F/IHP/dock.dpf
DOCKED: USER  
DOCKED: USER    Estimated Free Energy of Binding    =   +4.51 kcal/mol  [=(1)+(2)+(3)-(4)]
DOCKED: USER    
DOCKED: USER    (1) Final Intermolecular Energy     =   -2.65 kcal/mol
DOCKED: USER        vdW + Hbond + desolv Energy     =   -2.60 kcal/mol
DOCKED: USER        Electrostatic Energy            =   -0.05 kcal/mol
DOCKED: USER    (2) Final Total Internal Energy     =  -15.59 kcal/mol
DOCKED: USER    (3) Torsional Free Energy           =   +7.16 kcal/mol
DOCKED: USER    (4) Unbound System's Energy  [=(2)] =  -15.59 kcal/mol
DOCKED: USER    
DOCKED: USER    
DOCKED: USER    NEWDPF move IHP_ideal_opt.pdbqt
DOCKED: USER    NEWDPF about 0.035000 0.082000 -0.065000
DOCKED: USER    NEWDPF tran0 -10.734083 -19.475839 -7.048757
DOCKED: USER    NEWDPF quaternion0 -0.756580 -0.382977 0.057431 0.526895
DOCKED: USER    NEWDPF axisangle0 -0.890166 -0.450598 0.067571 116.408263
DOCKED: USER    NEWDPF quat0 -0.890166 -0.450598 0.067571 116.408263
DOCKED: USER    NEWDPF dihe0 138.35 83.59 52.56 30.28 23.98 -106.87 -164.65 15.98 67.15 86.07 107.42 -133.55 -46.50 173.73 -58.69 54.03 57.71 96.56 40.50 -19.44 174.82 158.05 27.14 -43.26 
DOCKED: USER  keepresnum = 1 
DOCKED: USER  
DOCKED: REMARK  24 active torsions:
DOCKED: REMARK  status: ('A' for Active; 'I' for Inactive)
DOCKED: REMARK    1  A    between atoms: C_1  and  O_7 
DOCKED: REMARK    2  A    between atoms: C_2  and  O_12 
DOCKED: REMARK    3  A    between atoms: C_3  and  O_17 
DOCKED: REMARK    4  A    between atoms: C_4  and  O_22 
DOCKED: REMARK    5  A    between atoms: C_5  and  O_27 
DOCKED: REMARK    6  A    between atoms: C_6  and  O_32 
DOCKED: REMARK    7  A    between atoms: O_7  and  P_8 
DOCKED: REMARK    8  A    between atoms: P_8  and  O_10 
DOCKED: REMARK    9  A    between atoms: P_8  and  O_11 
DOCKED: REMARK   10  A    between atoms: O_12  and  P_13 
DOCKED: REMARK   11  A    between atoms: P_13  and  O_15 
DOCKED: REMARK   12  A    between atoms: P_13  and  O_16 
DOCKED: REMARK   13  A    between atoms: O_17  and  P_18 
DOCKED: REMARK   14  A    between atoms: P_18  and  O_20 
DOCKED: REMARK   15  A    between atoms: P_18  and  O_21 
DOCKED: REMARK   16  A    between atoms: O_22  and  P_23 
DOCKED: REMARK   17  A    between atoms: P_23  and  O_25 
DOCKED: REMARK   18  A    between atoms: P_23  and  O_26 
DOCKED: REMARK   19  A    between atoms: O_27  and  P_28 
DOCKED: REMARK   20  A    between atoms: P_28  and  O_30 
DOCKED: REMARK   21  A    between atoms: P_28  and  O_31 
DOCKED: REMARK   22  A    between atoms: O_32  and  P_33 
DOCKED: REMARK   23  A    between atoms: P_33  and  O_35 
DOCKED: REMARK   24  A    between atoms: P_33  and  O_36 
DOCKED: USER                              x       y       z     vdW  Elec       q    Type
DOCKED: USER                           _______ _______ _______ _____ _____    ______ ____
DOCKED: ROOT
DOCKED: ATOM      1  C   UNL d   1     -10.175 -19.357  -8.679 -0.12 +0.00    +0.194 C 
DOCKED: ATOM      2  C   UNL d   1     -11.680 -19.572  -8.511 -0.06 +0.01    +0.194 C 
DOCKED: ATOM      3  C   UNL d   1     -11.986 -20.621  -7.439 -0.02 +0.00    +0.194 C 
DOCKED: ATOM      4  C   UNL d   1     -11.290 -20.342  -6.109 -0.03 +0.00    +0.194 C 
DOCKED: ATOM      5  C   UNL d   1      -9.810 -20.009  -6.241 -0.07 -0.00    +0.194 C 
DOCKED: ATOM      6  C   UNL d   1      -9.497 -19.006  -7.353 -0.12 -0.01    +0.194 C 
DOCKED: ENDROOT
DOCKED: BRANCH   1   7
DOCKED: ATOM      7  O   UNL d   1      -9.979 -18.250  -9.563 -0.00 +0.01    -0.278 OA
DOCKED: BRANCH   7   8
DOCKED: ATOM      8  P   UNL d   1     -10.064 -18.512 -11.137 -0.10 +0.03    +0.473 P 
DOCKED: ATOM      9  O   UNL d   1     -10.464 -19.892 -11.526 -0.04 -0.03    -0.228 OA
DOCKED: BRANCH   8  10
DOCKED: ATOM     10  O   UNL d   1     -11.074 -17.394 -11.660 -0.08 -0.03    -0.303 OA
DOCKED: ATOM     11  H   UNL d   1     -11.606 -17.058 -10.914 +0.06 +0.02    +0.222 HD
DOCKED: ENDBRANCH   8  10
DOCKED: BRANCH   8  12
DOCKED: ATOM     12  O   UNL d   1      -8.675 -18.003 -11.716 -0.19 -0.03    -0.303 OA
DOCKED: ATOM     13  H   UNL d   1      -7.913 -18.211 -11.129 -0.33 +0.00    +0.222 HD
DOCKED: ENDBRANCH   8  12
DOCKED: ENDBRANCH   7   8
DOCKED: ENDBRANCH   1   7
DOCKED: BRANCH   2  14
DOCKED: ATOM     14  O   UNL d   1     -12.289 -18.334  -8.124 -0.07 -0.03    -0.278 OA
DOCKED: BRANCH  14  15
DOCKED: ATOM     15  P   UNL d   1     -13.262 -17.649  -9.196 -0.06 +0.05    +0.473 P 
DOCKED: ATOM     16  O   UNL d   1     -13.035 -16.198  -9.480 -0.18 -0.04    -0.228 OA
DOCKED: BRANCH  15  17
DOCKED: ATOM     17  O   UNL d   1     -13.114 -18.563 -10.493 -0.03 -0.02    -0.303 OA
DOCKED: ATOM     18  H   UNL d   1     -12.179 -18.794 -10.655 +0.04 +0.02    +0.222 HD
DOCKED: ENDBRANCH  15  17
DOCKED: BRANCH  15  19
DOCKED: ATOM     19  O   UNL d   1     -14.726 -18.031  -8.703 -0.02 -0.02    -0.303 OA
DOCKED: ATOM     20  H   UNL d   1     -14.736 -18.884  -8.230 +0.02 +0.01    +0.222 HD
DOCKED: ENDBRANCH  15  19
DOCKED: ENDBRANCH  14  15
DOCKED: ENDBRANCH   2  14
DOCKED: BRANCH   6  21
DOCKED: ATOM     21  O   UNL d   1      -8.090 -19.062  -7.575 -0.25 +0.03    -0.278 OA
DOCKED: BRANCH  21  22
DOCKED: ATOM     22  P   UNL d   1      -7.453 -20.330  -8.304 -0.16 -0.01    +0.473 P 
DOCKED: ATOM     23  O   UNL d   1      -8.145 -21.644  -8.165 -0.05 -0.00    -0.228 OA
DOCKED: BRANCH  22  24
DOCKED: ATOM     24  O   UNL d   1      -7.309 -19.807  -9.801 -0.17 -0.02    -0.303 OA
DOCKED: ATOM     25  H   UNL d   1      -8.132 -19.306 -10.033 -0.04 -0.01    +0.222 HD
DOCKED: ENDBRANCH  22  24
DOCKED: BRANCH  22  26
DOCKED: ATOM     26  O   UNL d   1      -5.937 -20.276  -7.787 -0.16 +0.02    -0.303 OA
DOCKED: ATOM     27  H   UNL d   1      -5.893 -20.641  -6.880 +0.06 -0.03    +0.222 HD
DOCKED: ENDBRANCH  22  26
DOCKED: ENDBRANCH  21  22
DOCKED: ENDBRANCH   6  21
DOCKED: BRANCH   3  28
DOCKED: ATOM     28  O   UNL d   1     -13.378 -20.553  -7.159 -0.01 -0.01    -0.278 OA
DOCKED: BRANCH  28  29
DOCKED: ATOM     29  P   UNL d   1     -13.919 -19.607  -5.998 -0.00 +0.01    +0.473 P 
DOCKED: ATOM     30  O   UNL d   1     -13.091 -18.408  -5.710 -0.06 -0.01    -0.228 OA
DOCKED: BRANCH  29  31
DOCKED: ATOM     31  O   UNL d   1     -15.411 -19.351  -6.519 -0.00 -0.01    -0.303 OA
DOCKED: ATOM     32  H   UNL d   1     -15.499 -18.401  -6.765 +0.02 +0.01    +0.222 HD
DOCKED: ENDBRANCH  29  31
DOCKED: BRANCH  29  33
DOCKED: ATOM     33  O   UNL d   1     -14.136 -20.635  -4.802 -0.00 -0.00    -0.303 OA
DOCKED: ATOM     34  H   UNL d   1     -13.256 -20.878  -4.424 +0.00 +0.00    +0.222 HD
DOCKED: ENDBRANCH  29  33
DOCKED: ENDBRANCH  28  29
DOCKED: ENDBRANCH   3  28
DOCKED: BRANCH   5  35
DOCKED: ATOM     35  O   UNL d   1      -9.440 -19.396  -5.007 -0.06 +0.01    -0.278 OA
DOCKED: BRANCH  35  36
DOCKED: ATOM     36  P   UNL d   1      -7.915 -19.383  -4.541 -0.11 -0.04    +0.473 P 
DOCKED: ATOM     37  O   UNL d   1      -7.190 -18.090  -4.742 -0.23 +0.04    -0.228 OA
DOCKED: BRANCH  36  38
DOCKED: ATOM     38  O   UNL d   1      -8.035 -19.835  -3.019 -0.03 +0.00    -0.303 OA
DOCKED: ATOM     39  H   UNL d   1      -8.984 -19.944  -2.790 +0.04 +0.00    +0.222 HD
DOCKED: ENDBRANCH  36  38
DOCKED: BRANCH  36  40
DOCKED: ATOM     40  O   UNL d   1      -7.324 -20.664  -5.275 -0.09 +0.03    -0.303 OA
DOCKED: ATOM     41  H   UNL d   1      -7.622 -20.718  -6.210 +0.06 -0.01    +0.222 HD
DOCKED: ENDBRANCH  36  40
DOCKED: ENDBRANCH  35  36
DOCKED: ENDBRANCH   5  35
DOCKED: BRANCH   4  42
DOCKED: ATOM     42  O   UNL d   1     -11.385 -21.542  -5.333 -0.00 -0.00    -0.278 OA
DOCKED: BRANCH  42  43
DOCKED: ATOM     43  P   UNL d   1     -11.334 -21.437  -3.742 +0.00 -0.00    +0.473 P 
DOCKED: ATOM     44  O   UNL d   1     -12.214 -22.354  -2.965 +0.00 +0.00    -0.228 OA
DOCKED: BRANCH  43  45
DOCKED: ATOM     45  O   UNL d   1      -9.783 -21.604  -3.430 +0.00 -0.00    -0.303 OA
DOCKED: ATOM     46  H   UNL d   1      -9.231 -21.201  -4.131 +0.03 -0.00    +0.222 HD
DOCKED: ENDBRANCH  43  45
DOCKED: BRANCH  43  47
DOCKED: ATOM     47  O   UNL d   1     -11.554 -19.872  -3.471 -0.01 +0.00    -0.303 OA
DOCKED: ATOM     48  H   UNL d   1     -12.292 -19.549  -4.029 +0.02 +0.00    +0.222 HD
DOCKED: ENDBRANCH  43  47
DOCKED: ENDBRANCH  42  43
DOCKED: ENDBRANCH   4  42
DOCKED: TORSDOF 24
DOCKED: TER
DOCKED: ENDMDL
________________________________________________________________________________


	BEGINNING GENETIC ALGORITHM DOCKING 72 of 100
Run: 72 Seed: 956322888 520409370 [ Run 72 of 100 GA/GALS ]
Beginning LAMARCKIAN GENETIC ALGORITHM (LGA), with a maximum of 25000000 energy evaluations.

Final-Value: -15.022


	FINAL GENETIC ALGORITHM DOCKED STATE
	_______________________________________________


Detailed state:  trans -19.967 -9.727 -2.605 quatxyzw 0.146145 0.916593 -0.248910 -0.276665 center 0.035 0.082 -0.065 ntor 24 134.5467 -180.0000 -171.9132 -34.2947 143.4435 125.8023 -35.1038 -0.5159 96.2809 3.7041 15.5012 -101.6299 131.0427 -179.9361 43.6311 178.9100 -101.8154 -97.2001 -3.3183 15.2126 -20.7604 18.9019 -180.0000 -113.3940
State:	-19.967  -9.727  -2.605   0.152  0.954 -0.259 -147.878    134.55 -180.00 -171.91  -34.29  143.44  125.80  -35.10   -0.52   96.28    3.70   15.50 -101.63  131.04 -179.94   43.63  178.91 -101.82  -97.20   -3.32   15.21  -20.76   18.90 -180.00 -113.39

DOCKED: MODEL       72
DOCKED: USER    Run = 72
DOCKED: USER    DPF = D:/Protein_go_brrr/autodock/final/mut_Y35F/IHP/dock.dpf
DOCKED: USER  
DOCKED: USER    Estimated Free Energy of Binding    =   +3.33 kcal/mol  [=(1)+(2)+(3)-(4)]
DOCKED: USER    
DOCKED: USER    (1) Final Intermolecular Energy     =   -3.83 kcal/mol
DOCKED: USER        vdW + Hbond + desolv Energy     =   -3.61 kcal/mol
DOCKED: USER        Electrostatic Energy            =   -0.21 kcal/mol
DOCKED: USER    (2) Final Total Internal Energy     =  -11.19 kcal/mol
DOCKED: USER    (3) Torsional Free Energy           =   +7.16 kcal/mol
DOCKED: USER    (4) Unbound System's Energy  [=(2)] =  -11.19 kcal/mol
DOCKED: USER    
DOCKED: USER    
DOCKED: USER    NEWDPF move IHP_ideal_opt.pdbqt
DOCKED: USER    NEWDPF about 0.035000 0.082000 -0.065000
DOCKED: USER    NEWDPF tran0 -19.967247 -9.727406 -2.604557
DOCKED: USER    NEWDPF quaternion0 0.146145 0.916593 -0.248910 -0.276665
DOCKED: USER    NEWDPF axisangle0 0.152081 0.953824 -0.259020 -147.877531
DOCKED: USER    NEWDPF quat0 0.152081 0.953824 -0.259020 -147.877531
DOCKED: USER    NEWDPF dihe0 134.55 -180.00 -171.91 -34.29 143.44 125.80 -35.10 -0.52 96.28 3.70 15.50 -101.63 131.04 -179.94 43.63 178.91 -101.82 -97.20 -3.32 15.21 -20.76 18.90 -180.00 -113.39 
DOCKED: USER  keepresnum = 1 
DOCKED: USER  
DOCKED: REMARK  24 active torsions:
DOCKED: REMARK  status: ('A' for Active; 'I' for Inactive)
DOCKED: REMARK    1  A    between atoms: C_1  and  O_7 
DOCKED: REMARK    2  A    between atoms: C_2  and  O_12 
DOCKED: REMARK    3  A    between atoms: C_3  and  O_17 
DOCKED: REMARK    4  A    between atoms: C_4  and  O_22 
DOCKED: REMARK    5  A    between atoms: C_5  and  O_27 
DOCKED: REMARK    6  A    between atoms: C_6  and  O_32 
DOCKED: REMARK    7  A    between atoms: O_7  and  P_8 
DOCKED: REMARK    8  A    between atoms: P_8  and  O_10 
DOCKED: REMARK    9  A    between atoms: P_8  and  O_11 
DOCKED: REMARK   10  A    between atoms: O_12  and  P_13 
DOCKED: REMARK   11  A    between atoms: P_13  and  O_15 
DOCKED: REMARK   12  A    between atoms: P_13  and  O_16 
DOCKED: REMARK   13  A    between atoms: O_17  and  P_18 
DOCKED: REMARK   14  A    between atoms: P_18  and  O_20 
DOCKED: REMARK   15  A    between atoms: P_18  and  O_21 
DOCKED: REMARK   16  A    between atoms: O_22  and  P_23 
DOCKED: REMARK   17  A    between atoms: P_23  and  O_25 
DOCKED: REMARK   18  A    between atoms: P_23  and  O_26 
DOCKED: REMARK   19  A    between atoms: O_27  and  P_28 
DOCKED: REMARK   20  A    between atoms: P_28  and  O_30 
DOCKED: REMARK   21  A    between atoms: P_28  and  O_31 
DOCKED: REMARK   22  A    between atoms: O_32  and  P_33 
DOCKED: REMARK   23  A    between atoms: P_33  and  O_35 
DOCKED: REMARK   24  A    between atoms: P_33  and  O_36 
DOCKED: USER                              x       y       z     vdW  Elec       q    Type
DOCKED: USER                           _______ _______ _______ _____ _____    ______ ____
DOCKED: ROOT
DOCKED: ATOM      1  C   UNL d   1     -20.991 -10.729  -3.570 -0.01 -0.02    +0.194 C 
DOCKED: ATOM      2  C   UNL d   1     -20.474 -11.364  -2.277 -0.02 -0.03    +0.194 C 
DOCKED: ATOM      3  C   UNL d   1     -18.992 -11.059  -2.050 -0.08 -0.05    +0.194 C 
DOCKED: ATOM      4  C   UNL d   1     -18.665  -9.570  -2.134 -0.12 -0.07    +0.194 C 
DOCKED: ATOM      5  C   UNL d   1     -19.259  -8.871  -3.350 -0.05 -0.03    +0.194 C 
DOCKED: ATOM      6  C   UNL d   1     -20.724  -9.224  -3.613 -0.01 -0.01    +0.194 C 
DOCKED: ENDROOT
DOCKED: BRANCH   1   7
DOCKED: ATOM      7  O   UNL d   1     -22.408 -10.912  -3.620 -0.00 +0.02    -0.278 OA
DOCKED: BRANCH   7   8
DOCKED: ATOM      8  P   UNL d   1     -23.039 -11.605  -4.914 +0.00 -0.02    +0.473 P 
DOCKED: ATOM      9  O   UNL d   1     -24.524 -11.702  -4.917 +0.00 +0.01    -0.228 OA
DOCKED: BRANCH   8  10
DOCKED: ATOM     10  O   UNL d   1     -22.463 -10.748  -6.131 -0.00 +0.01    -0.303 OA
DOCKED: ATOM     11  H   UNL d   1     -22.212  -9.860  -5.815 +0.00 -0.01    +0.222 HD
DOCKED: ENDBRANCH   8  10
DOCKED: BRANCH   8  12
DOCKED: ATOM     12  O   UNL d   1     -22.253 -12.977  -5.072 -0.00 +0.01    -0.303 OA
DOCKED: ATOM     13  H   UNL d   1     -22.845 -13.740  -5.259 +0.00 -0.01    +0.222 HD
DOCKED: ENDBRANCH   8  12
DOCKED: ENDBRANCH   7   8
DOCKED: ENDBRANCH   1   7
DOCKED: BRANCH   2  14
DOCKED: ATOM     14  O   UNL d   1     -21.222 -10.844  -1.171 -0.02 +0.05    -0.278 OA
DOCKED: BRANCH  14  15
DOCKED: ATOM     15  P   UNL d   1     -21.471 -11.843   0.056 -0.04 -0.16    +0.473 P 
DOCKED: ATOM     16  O   UNL d   1     -22.894 -12.064   0.464 -0.03 +0.06    -0.228 OA
DOCKED: BRANCH  15  17
DOCKED: ATOM     17  O   UNL d   1     -20.738 -13.187  -0.383 -0.06 +0.12    -0.303 OA
DOCKED: ATOM     18  H   UNL d   1     -19.818 -13.209  -0.056 +0.06 -0.12    +0.222 HD
DOCKED: ENDBRANCH  15  17
DOCKED: BRANCH  15  19
DOCKED: ATOM     19  O   UNL d   1     -20.504 -11.312   1.202 -0.06 +0.19    -0.303 OA
DOCKED: ATOM     20  H   UNL d   1     -19.647 -11.777   1.195 -0.18 -0.22    +0.222 HD
DOCKED: ENDBRANCH  15  19
DOCKED: ENDBRANCH  14  15
DOCKED: ENDBRANCH   2  14
DOCKED: BRANCH   6  21
DOCKED: ATOM     21  O   UNL d   1     -21.023  -8.784  -4.936 -0.00 +0.01    -0.278 OA
DOCKED: BRANCH  21  22
DOCKED: ATOM     22  P   UNL d   1     -22.222  -7.760  -5.177 +0.01 -0.00    +0.473 P 
DOCKED: ATOM     23  O   UNL d   1     -22.022  -6.335  -4.782 +0.00 -0.00    -0.228 OA
DOCKED: BRANCH  22  24
DOCKED: ATOM     24  O   UNL d   1     -22.538  -7.986  -6.721 +0.00 +0.00    -0.303 OA
DOCKED: ATOM     25  H   UNL d   1     -23.054  -8.828  -6.809 +0.00 -0.00    +0.222 HD
DOCKED: ENDBRANCH  22  24
DOCKED: BRANCH  22  26
DOCKED: ATOM     26  O   UNL d   1     -23.446  -8.519  -4.474 +0.00 +0.01    -0.303 OA
DOCKED: ATOM     27  H   UNL d   1     -23.465  -9.449  -4.778 +0.00 -0.01    +0.222 HD
DOCKED: ENDBRANCH  22  26
DOCKED: ENDBRANCH  21  22
DOCKED: ENDBRANCH   6  21
DOCKED: BRANCH   3  28
DOCKED: ATOM     28  O   UNL d   1     -18.676 -11.440  -0.718 -0.16 +0.12    -0.278 OA
DOCKED: BRANCH  28  29
DOCKED: ATOM     29  P   UNL d   1     -17.417 -12.372  -0.425 -0.20 -0.18    +0.473 P 
DOCKED: ATOM     30  O   UNL d   1     -16.803 -12.215   0.918 -0.14 +0.12    -0.228 OA
DOCKED: BRANCH  29  31
DOCKED: ATOM     31  O   UNL d   1     -18.042 -13.803  -0.775 -0.13 +0.09    -0.303 OA
DOCKED: ATOM     32  H   UNL d   1     -18.866 -13.667  -1.298 +0.06 -0.06    +0.222 HD
DOCKED: ENDBRANCH  29  31
DOCKED: BRANCH  29  33
DOCKED: ATOM     33  O   UNL d   1     -16.485 -12.078  -1.682 -0.18 +0.06    -0.303 OA
DOCKED: ATOM     34  H   UNL d   1     -16.280 -11.111  -1.711 +0.12 -0.07    +0.222 HD
DOCKED: ENDBRANCH  29  33
DOCKED: ENDBRANCH  28  29
DOCKED: ENDBRANCH   3  28
DOCKED: BRANCH   5  35
DOCKED: ATOM     35  O   UNL d   1     -19.209  -7.476  -3.058 -0.05 +0.01    -0.278 OA
DOCKED: BRANCH  35  36
DOCKED: ATOM     36  P   UNL d   1     -19.760  -6.926  -1.666 -0.07 +0.07    +0.473 P 
DOCKED: ATOM     37  O   UNL d   1     -21.190  -7.246  -1.366 -0.03 -0.01    -0.228 OA
DOCKED: BRANCH  36  38
DOCKED: ATOM     38  O   UNL d   1     -18.719  -7.549  -0.634 -0.17 +0.08    -0.303 OA
DOCKED: ATOM     39  H   UNL d   1     -17.865  -7.704  -1.093 -0.21 -0.31    +0.222 HD
DOCKED: ENDBRANCH  36  38
DOCKED: BRANCH  36  40
DOCKED: ATOM     40  O   UNL d   1     -19.362  -5.387  -1.728 -0.60 -0.20    -0.303 OA
DOCKED: ATOM     41  H   UNL d   1     -18.484  -5.254  -2.150 +0.04 +0.17    +0.222 HD
DOCKED: ENDBRANCH  36  40
DOCKED: ENDBRANCH  35  36
DOCKED: ENDBRANCH   5  35
DOCKED: BRANCH   4  42
DOCKED: ATOM     42  O   UNL d   1     -17.241  -9.464  -2.241 -0.15 +0.18    -0.278 OA
DOCKED: BRANCH  42  43
DOCKED: ATOM     43  P   UNL d   1     -16.621  -8.454  -3.309 -0.11 -0.19    +0.473 P 
DOCKED: ATOM     44  O   UNL d   1     -17.110  -8.552  -4.712 -0.16 +0.02    -0.228 OA
DOCKED: BRANCH  43  45
DOCKED: ATOM     45  O   UNL d   1     -16.868  -7.035  -2.631 -0.12 +0.14    -0.303 OA
DOCKED: ATOM     46  H   UNL d   1     -17.817  -6.887  -2.447 -0.05 -0.03    +0.222 HD
DOCKED: ENDBRANCH  43  45
DOCKED: BRANCH  43  47
DOCKED: ATOM     47  O   UNL d   1     -15.041  -8.638  -3.112 -0.32 +0.15    -0.303 OA
DOCKED: ATOM     48  H   UNL d   1     -14.756  -9.468  -3.548 -0.38 -0.09    +0.222 HD
DOCKED: ENDBRANCH  43  47
DOCKED: ENDBRANCH  42  43
DOCKED: ENDBRANCH   4  42
DOCKED: TORSDOF 24
DOCKED: TER
DOCKED: ENDMDL
________________________________________________________________________________


	BEGINNING GENETIC ALGORITHM DOCKING 73 of 100
Run: 73 Seed: 49597399 77447312 [ Run 73 of 100 GA/GALS ]
Beginning LAMARCKIAN GENETIC ALGORITHM (LGA), with a maximum of 25000000 energy evaluations.

Final-Value: -19.095


	FINAL GENETIC ALGORITHM DOCKED STATE
	_______________________________________________


Detailed state:  trans 14.268 8.314 6.260 quatxyzw -0.272308 -0.056649 -0.921804 0.270030 center 0.035 0.082 -0.065 ntor 24 -118.5628 14.4824 168.1175 16.2509 148.2955 136.8680 -121.8739 64.0568 27.4230 86.5674 110.8871 -179.8040 -144.8044 80.6098 -154.6057 47.7646 -27.3510 -153.5042 24.1968 -39.5290 9.1385 13.1280 -21.9692 8.9479
State:	 14.268   8.314   6.260  -0.283 -0.059 -0.957 148.668   -118.56   14.48  168.12   16.25  148.30  136.87 -121.87   64.06   27.42   86.57  110.89 -179.80 -144.80   80.61 -154.61   47.76  -27.35 -153.50   24.20  -39.53    9.14   13.13  -21.97    8.95

DOCKED: MODEL       73
DOCKED: USER    Run = 73
DOCKED: USER    DPF = D:/Protein_go_brrr/autodock/final/mut_Y35F/IHP/dock.dpf
DOCKED: USER  
DOCKED: USER    Estimated Free Energy of Binding    =   +2.35 kcal/mol  [=(1)+(2)+(3)-(4)]
DOCKED: USER    
DOCKED: USER    (1) Final Intermolecular Energy     =   -4.81 kcal/mol
DOCKED: USER        vdW + Hbond + desolv Energy     =   -4.56 kcal/mol
DOCKED: USER        Electrostatic Energy            =   -0.26 kcal/mol
DOCKED: USER    (2) Final Total Internal Energy     =  -14.28 kcal/mol
DOCKED: USER    (3) Torsional Free Energy           =   +7.16 kcal/mol
DOCKED: USER    (4) Unbound System's Energy  [=(2)] =  -14.28 kcal/mol
DOCKED: USER    
DOCKED: USER    
DOCKED: USER    NEWDPF move IHP_ideal_opt.pdbqt
DOCKED: USER    NEWDPF about 0.035000 0.082000 -0.065000
DOCKED: USER    NEWDPF tran0 14.268220 8.314356 6.259523
DOCKED: USER    NEWDPF quaternion0 -0.272308 -0.056649 -0.921804 0.270030
DOCKED: USER    NEWDPF axisangle0 -0.282814 -0.058835 -0.957369 148.667901
DOCKED: USER    NEWDPF quat0 -0.282814 -0.058835 -0.957369 148.667901
DOCKED: USER    NEWDPF dihe0 -118.56 14.48 168.12 16.25 148.30 136.87 -121.87 64.06 27.42 86.57 110.89 -179.80 -144.80 80.61 -154.61 47.76 -27.35 -153.50 24.20 -39.53 9.14 13.13 -21.97 8.95 
DOCKED: USER  keepresnum = 1 
DOCKED: USER  
DOCKED: REMARK  24 active torsions:
DOCKED: REMARK  status: ('A' for Active; 'I' for Inactive)
DOCKED: REMARK    1  A    between atoms: C_1  and  O_7 
DOCKED: REMARK    2  A    between atoms: C_2  and  O_12 
DOCKED: REMARK    3  A    between atoms: C_3  and  O_17 
DOCKED: REMARK    4  A    between atoms: C_4  and  O_22 
DOCKED: REMARK    5  A    between atoms: C_5  and  O_27 
DOCKED: REMARK    6  A    between atoms: C_6  and  O_32 
DOCKED: REMARK    7  A    between atoms: O_7  and  P_8 
DOCKED: REMARK    8  A    between atoms: P_8  and  O_10 
DOCKED: REMARK    9  A    between atoms: P_8  and  O_11 
DOCKED: REMARK   10  A    between atoms: O_12  and  P_13 
DOCKED: REMARK   11  A    between atoms: P_13  and  O_15 
DOCKED: REMARK   12  A    between atoms: P_13  and  O_16 
DOCKED: REMARK   13  A    between atoms: O_17  and  P_18 
DOCKED: REMARK   14  A    between atoms: P_18  and  O_20 
DOCKED: REMARK   15  A    between atoms: P_18  and  O_21 
DOCKED: REMARK   16  A    between atoms: O_22  and  P_23 
DOCKED: REMARK   17  A    between atoms: P_23  and  O_25 
DOCKED: REMARK   18  A    between atoms: P_23  and  O_26 
DOCKED: REMARK   19  A    between atoms: O_27  and  P_28 
DOCKED: REMARK   20  A    between atoms: P_28  and  O_30 
DOCKED: REMARK   21  A    between atoms: P_28  and  O_31 
DOCKED: REMARK   22  A    between atoms: O_32  and  P_33 
DOCKED: REMARK   23  A    between atoms: P_33  and  O_35 
DOCKED: REMARK   24  A    between atoms: P_33  and  O_36 
DOCKED: USER                              x       y       z     vdW  Elec       q    Type
DOCKED: USER                           _______ _______ _______ _____ _____    ______ ____
DOCKED: ROOT
DOCKED: ATOM      1  C   UNL d   1      14.220   9.696   7.296 -0.01 +0.04    +0.194 C 
DOCKED: ATOM      2  C   UNL d   1      15.280   9.733   6.193 -0.06 +0.04    +0.194 C 
DOCKED: ATOM      3  C   UNL d   1      15.995   8.388   6.048 -0.07 +0.05    +0.194 C 
DOCKED: ATOM      4  C   UNL d   1      15.035   7.212   5.887 -0.08 +0.05    +0.194 C 
DOCKED: ATOM      5  C   UNL d   1      13.894   7.198   6.897 -0.04 +0.06    +0.194 C 
DOCKED: ATOM      6  C   UNL d   1      13.219   8.558   7.086 -0.03 +0.05    +0.194 C 
DOCKED: ENDROOT
DOCKED: BRANCH   1   7
DOCKED: ATOM      7  O   UNL d   1      13.486  10.922   7.251 -0.02 -0.04    -0.278 OA
DOCKED: BRANCH   7   8
DOCKED: ATOM      8  P   UNL d   1      13.886  12.084   8.272 -0.01 +0.06    +0.473 P 
DOCKED: ATOM      9  O   UNL d   1      13.116  12.096   9.546 -0.03 -0.04    -0.228 OA
DOCKED: BRANCH   8  10
DOCKED: ATOM     10  O   UNL d   1      15.454  11.887   8.487 -0.00 -0.03    -0.303 OA
DOCKED: ATOM     11  H   UNL d   1      15.941  12.326   7.765 +0.01 +0.02    +0.222 HD
DOCKED: ENDBRANCH   8  10
DOCKED: BRANCH   8  12
DOCKED: ATOM     12  O   UNL d   1      13.833  13.422   7.417 -0.02 -0.02    -0.303 OA
DOCKED: ATOM     13  H   UNL d   1      14.056  13.282   6.469 +0.02 +0.01    +0.222 HD
DOCKED: ENDBRANCH   8  12
DOCKED: ENDBRANCH   7   8
DOCKED: ENDBRANCH   1   7
DOCKED: BRANCH   2  14
DOCKED: ATOM     14  O   UNL d   1      14.646  10.050   4.947 -0.42 -0.08    -0.278 OA
DOCKED: BRANCH  14  15
DOCKED: ATOM     15  P   UNL d   1      14.584  11.600   4.549 -0.04 +0.07    +0.473 P 
DOCKED: ATOM     16  O   UNL d   1      14.916  11.943   3.131 -0.14 -0.02    -0.228 OA
DOCKED: BRANCH  15  17
DOCKED: ATOM     17  O   UNL d   1      13.113  12.048   4.965 -0.05 -0.01    -0.303 OA
DOCKED: ATOM     18  H   UNL d   1      13.024  12.105   5.936 +0.04 +0.01    +0.222 HD
DOCKED: ENDBRANCH  15  17
DOCKED: BRANCH  15  19
DOCKED: ATOM     19  O   UNL d   1      15.465  12.329   5.655 -0.04 -0.03    -0.303 OA
DOCKED: ATOM     20  H   UNL d   1      15.278  11.986   6.549 +0.02 +0.02    +0.222 HD
DOCKED: ENDBRANCH  15  19
DOCKED: ENDBRANCH  14  15
DOCKED: ENDBRANCH   2  14
DOCKED: BRANCH   6  21
DOCKED: ATOM     21  O   UNL d   1      12.435   8.467   8.274 -0.02 -0.10    -0.278 OA
DOCKED: BRANCH  21  22
DOCKED: ATOM     22  P   UNL d   1      10.897   8.058   8.177 -0.08 +0.24    +0.473 P 
DOCKED: ATOM     23  O   UNL d   1       9.884   8.976   8.774 -0.17 -0.08    -0.228 OA
DOCKED: BRANCH  22  24
DOCKED: ATOM     24  O   UNL d   1      10.726   7.801   6.616 -0.10 -0.11    -0.303 OA
DOCKED: ATOM     25  H   UNL d   1      11.046   6.885   6.417 +0.07 +0.11    +0.222 HD
DOCKED: ENDBRANCH  22  24
DOCKED: BRANCH  22  26
DOCKED: ATOM     26  O   UNL d   1      10.920   6.564   8.758 -0.27 -0.41    -0.303 OA
DOCKED: ATOM     27  H   UNL d   1      11.737   6.116   8.460 +0.04 +0.30    +0.222 HD
DOCKED: ENDBRANCH  22  26
DOCKED: ENDBRANCH  21  22
DOCKED: ENDBRANCH   6  21
DOCKED: BRANCH   3  28
DOCKED: ATOM     28  O   UNL d   1      16.746   8.430   4.842 -0.19 -0.12    -0.278 OA
DOCKED: BRANCH  28  29
DOCKED: ATOM     29  P   UNL d   1      18.315   8.158   4.862 -0.13 +0.24    +0.473 P 
DOCKED: ATOM     30  O   UNL d   1      18.818   7.396   6.034 -0.04 -0.08    -0.228 OA
DOCKED: BRANCH  29  31
DOCKED: ATOM     31  O   UNL d   1      18.500   7.483   3.423 -0.69 -0.34    -0.303 OA
DOCKED: ATOM     32  H   UNL d   1      18.085   6.590   3.439 +0.07 +0.20    +0.222 HD
DOCKED: ENDBRANCH  29  31
DOCKED: BRANCH  29  33
DOCKED: ATOM     33  O   UNL d   1      18.911   9.619   4.645 -0.11 -0.14    -0.303 OA
DOCKED: ATOM     34  H   UNL d   1      19.514   9.835   5.398 +0.03 +0.08    +0.222 HD
DOCKED: ENDBRANCH  29  33
DOCKED: ENDBRANCH  28  29
DOCKED: ENDBRANCH   3  28
DOCKED: BRANCH   5  35
DOCKED: ATOM     35  O   UNL d   1      12.913   6.314   6.360 -0.12 -0.13    -0.278 OA
DOCKED: BRANCH  35  36
DOCKED: ATOM     36  P   UNL d   1      12.664   4.887   7.028 -0.11 +0.42    +0.473 P 
DOCKED: ATOM     37  O   UNL d   1      13.201   4.721   8.414 -0.19 -0.24    -0.228 OA
DOCKED: BRANCH  36  38
DOCKED: ATOM     38  O   UNL d   1      11.082   4.747   6.918 -0.50 -0.44    -0.303 OA
DOCKED: ATOM     39  H   UNL d   1      10.666   5.604   7.156 +0.06 +0.30    +0.222 HD
DOCKED: ENDBRANCH  36  38
DOCKED: BRANCH  36  40
DOCKED: ATOM     40  O   UNL d   1      13.214   3.891   5.916 -0.76 -0.19    -0.303 OA
DOCKED: ATOM     41  H   UNL d   1      14.078   4.190   5.555 +0.10 +0.09    +0.222 HD
DOCKED: ENDBRANCH  36  40
DOCKED: ENDBRANCH  35  36
DOCKED: ENDBRANCH   5  35
DOCKED: BRANCH   4  42
DOCKED: ATOM     42  O   UNL d   1      15.801   6.021   6.101 -0.04 -0.08    -0.278 OA
DOCKED: BRANCH  42  43
DOCKED: ATOM     43  P   UNL d   1      16.262   5.163   4.838 -0.12 +0.15    +0.473 P 
DOCKED: ATOM     44  O   UNL d   1      15.579   3.859   4.606 -0.23 -0.07    -0.228 OA
DOCKED: BRANCH  43  45
DOCKED: ATOM     45  O   UNL d   1      16.110   6.199   3.639 -0.13 -0.11    -0.303 OA
DOCKED: ATOM     46  H   UNL d   1      16.374   7.101   3.909 +0.07 +0.08    +0.222 HD
DOCKED: ENDBRANCH  43  45
DOCKED: BRANCH  43  47
DOCKED: ATOM     47  O   UNL d   1      17.854   5.090   5.006 -0.10 -0.13    -0.303 OA
DOCKED: ATOM     48  H   UNL d   1      18.117   5.588   5.808 +0.05 +0.08    +0.222 HD
DOCKED: ENDBRANCH  43  47
DOCKED: ENDBRANCH  42  43
DOCKED: ENDBRANCH   4  42
DOCKED: TORSDOF 24
DOCKED: TER
DOCKED: ENDMDL
________________________________________________________________________________


	BEGINNING GENETIC ALGORITHM DOCKING 74 of 100
Run: 74 Seed: 243968056 1599217860 [ Run 74 of 100 GA/GALS ]
Beginning LAMARCKIAN GENETIC ALGORITHM (LGA), with a maximum of 25000000 energy evaluations.

Final-Value: -19.330


	FINAL GENETIC ALGORITHM DOCKED STATE
	_______________________________________________


Detailed state:  trans 12.599 17.924 0.390 quatxyzw 0.083235 -0.251662 -0.945517 0.189037 center 0.035 0.082 -0.065 ntor 24 64.3202 91.4990 62.6775 65.6117 93.6090 -146.8898 -66.7340 -64.0865 18.2332 24.3747 31.8369 -179.7053 -39.9133 -83.2406 105.8791 -13.5162 -48.4475 143.7105 -166.3974 4.9111 -18.0892 3.6022 15.0275 -14.2772
State:	 12.599  17.924   0.390   0.085 -0.256 -0.963 158.207     64.32   91.50   62.68   65.61   93.61 -146.89  -66.73  -64.09   18.23   24.37   31.84 -179.71  -39.91  -83.24  105.88  -13.52  -48.45  143.71 -166.40    4.91  -18.09    3.60   15.03  -14.28

DOCKED: MODEL       74
DOCKED: USER    Run = 74
DOCKED: USER    DPF = D:/Protein_go_brrr/autodock/final/mut_Y35F/IHP/dock.dpf
DOCKED: USER  
DOCKED: USER    Estimated Free Energy of Binding    =   +2.19 kcal/mol  [=(1)+(2)+(3)-(4)]
DOCKED: USER    
DOCKED: USER    (1) Final Intermolecular Energy     =   -4.97 kcal/mol
DOCKED: USER        vdW + Hbond + desolv Energy     =   -4.54 kcal/mol
DOCKED: USER        Electrostatic Energy            =   -0.43 kcal/mol
DOCKED: USER    (2) Final Total Internal Energy     =  -14.36 kcal/mol
DOCKED: USER    (3) Torsional Free Energy           =   +7.16 kcal/mol
DOCKED: USER    (4) Unbound System's Energy  [=(2)] =  -14.36 kcal/mol
DOCKED: USER    
DOCKED: USER    
DOCKED: USER    NEWDPF move IHP_ideal_opt.pdbqt
DOCKED: USER    NEWDPF about 0.035000 0.082000 -0.065000
DOCKED: USER    NEWDPF tran0 12.598561 17.924073 0.390416
DOCKED: USER    NEWDPF quaternion0 0.083235 -0.251662 -0.945517 0.189037
DOCKED: USER    NEWDPF axisangle0 0.084763 -0.256282 -0.962878 158.206765
DOCKED: USER    NEWDPF quat0 0.084763 -0.256282 -0.962878 158.206765
DOCKED: USER    NEWDPF dihe0 64.32 91.50 62.68 65.61 93.61 -146.89 -66.73 -64.09 18.23 24.37 31.84 -179.71 -39.91 -83.24 105.88 -13.52 -48.45 143.71 -166.40 4.91 -18.09 3.60 15.03 -14.28 
DOCKED: USER  keepresnum = 1 
DOCKED: USER  
DOCKED: REMARK  24 active torsions:
DOCKED: REMARK  status: ('A' for Active; 'I' for Inactive)
DOCKED: REMARK    1  A    between atoms: C_1  and  O_7 
DOCKED: REMARK    2  A    between atoms: C_2  and  O_12 
DOCKED: REMARK    3  A    between atoms: C_3  and  O_17 
DOCKED: REMARK    4  A    between atoms: C_4  and  O_22 
DOCKED: REMARK    5  A    between atoms: C_5  and  O_27 
DOCKED: REMARK    6  A    between atoms: C_6  and  O_32 
DOCKED: REMARK    7  A    between atoms: O_7  and  P_8 
DOCKED: REMARK    8  A    between atoms: P_8  and  O_10 
DOCKED: REMARK    9  A    between atoms: P_8  and  O_11 
DOCKED: REMARK   10  A    between atoms: O_12  and  P_13 
DOCKED: REMARK   11  A    between atoms: P_13  and  O_15 
DOCKED: REMARK   12  A    between atoms: P_13  and  O_16 
DOCKED: REMARK   13  A    between atoms: O_17  and  P_18 
DOCKED: REMARK   14  A    between atoms: P_18  and  O_20 
DOCKED: REMARK   15  A    between atoms: P_18  and  O_21 
DOCKED: REMARK   16  A    between atoms: O_22  and  P_23 
DOCKED: REMARK   17  A    between atoms: P_23  and  O_25 
DOCKED: REMARK   18  A    between atoms: P_23  and  O_26 
DOCKED: REMARK   19  A    between atoms: O_27  and  P_28 
DOCKED: REMARK   20  A    between atoms: P_28  and  O_30 
DOCKED: REMARK   21  A    between atoms: P_28  and  O_31 
DOCKED: REMARK   22  A    between atoms: O_32  and  P_33 
DOCKED: REMARK   23  A    between atoms: P_33  and  O_35 
DOCKED: REMARK   24  A    between atoms: P_33  and  O_36 
DOCKED: USER                              x       y       z     vdW  Elec       q    Type
DOCKED: USER                           _______ _______ _______ _____ _____    ______ ____
DOCKED: ROOT
DOCKED: ATOM      1  C   UNL d   1      11.758  19.433   0.359 -0.04 -0.09    +0.194 C 
DOCKED: ATOM      2  C   UNL d   1      13.243  19.497  -0.000 -0.07 -0.14    +0.194 C 
DOCKED: ATOM      3  C   UNL d   1      14.091  18.634   0.938 -0.07 -0.15    +0.194 C 
DOCKED: ATOM      4  C   UNL d   1      13.586  17.198   1.055 -0.08 -0.18    +0.194 C 
DOCKED: ATOM      5  C   UNL d   1      12.087  17.085   1.299 -0.12 -0.10    +0.194 C 
DOCKED: ATOM      6  C   UNL d   1      11.243  17.994   0.402 -0.11 -0.10    +0.194 C 
DOCKED: ENDROOT
DOCKED: BRANCH   1   7
DOCKED: ATOM      7  O   UNL d   1      11.023  20.118  -0.658 -0.02 +0.09    -0.278 OA
DOCKED: BRANCH   7   8
DOCKED: ATOM      8  P   UNL d   1      10.906  19.438  -2.099 -0.06 -0.22    +0.473 P 
DOCKED: ATOM      9  O   UNL d   1      11.350  18.018  -2.164 -0.20 +0.24    -0.228 OA
DOCKED: BRANCH   8  10
DOCKED: ATOM     10  O   UNL d   1       9.374  19.635  -2.497 -0.05 +0.04    -0.303 OA
DOCKED: ATOM     11  H   UNL d   1       8.863  18.848  -2.232 +0.07 -0.01    +0.222 HD
DOCKED: ENDBRANCH   8  10
DOCKED: BRANCH   8  12
DOCKED: ATOM     12  O   UNL d   1      11.640  20.440  -3.090 -0.03 +0.13    -0.303 OA
DOCKED: ATOM     13  H   UNL d   1      12.508  20.752  -2.749 +0.02 -0.11    +0.222 HD
DOCKED: ENDBRANCH   8  12
DOCKED: ENDBRANCH   7   8
DOCKED: ENDBRANCH   1   7
DOCKED: BRANCH   2  14
DOCKED: ATOM     14  O   UNL d   1      13.420  19.022  -1.341 -0.06 +0.41    -0.278 OA
DOCKED: BRANCH  14  15
DOCKED: ATOM     15  P   UNL d   1      14.410  19.867  -2.274 +0.01 -0.51    +0.473 P 
DOCKED: ATOM     16  O   UNL d   1      14.550  21.324  -1.961 -0.02 +0.10    -0.228 OA
DOCKED: BRANCH  15  17
DOCKED: ATOM     17  O   UNL d   1      15.793  19.081  -2.185 -0.06 +0.44    -0.303 OA
DOCKED: ATOM     18  H   UNL d   1      15.910  18.675  -1.304 -0.49 -0.42    +0.222 HD
DOCKED: ENDBRANCH  15  17
DOCKED: BRANCH  15  19
DOCKED: ATOM     19  O   UNL d   1      13.944  19.526  -3.757 -0.07 +0.35    -0.303 OA
DOCKED: ATOM     20  H   UNL d   1      13.137  18.980  -3.764 -0.40 -0.35    +0.222 HD
DOCKED: ENDBRANCH  15  19
DOCKED: ENDBRANCH  14  15
DOCKED: ENDBRANCH   2  14
DOCKED: BRANCH   6  21
DOCKED: ATOM     21  O   UNL d   1       9.936  18.034   0.970 -0.06 +0.08    -0.278 OA
DOCKED: BRANCH  21  22
DOCKED: ATOM     22  P   UNL d   1       8.684  17.542   0.112 -0.14 -0.08    +0.473 P 
DOCKED: ATOM     23  O   UNL d   1       7.669  16.676   0.779 -0.25 +0.04    -0.228 OA
DOCKED: BRANCH  22  24
DOCKED: ATOM     24  O   UNL d   1       8.118  18.917  -0.456 -0.06 +0.02    -0.303 OA
DOCKED: ATOM     25  H   UNL d   1       8.871  19.558  -0.519 +0.06 -0.03    +0.222 HD
DOCKED: ENDBRANCH  22  24
DOCKED: BRANCH  22  26
DOCKED: ATOM     26  O   UNL d   1       9.400  16.919  -1.180 -0.27 +0.09    -0.303 OA
DOCKED: ATOM     27  H   UNL d   1      10.209  16.444  -0.902 -0.19 -0.15    +0.222 HD
DOCKED: ENDBRANCH  22  26
DOCKED: ENDBRANCH  21  22
DOCKED: ENDBRANCH   6  21
DOCKED: BRANCH   3  28
DOCKED: ATOM     28  O   UNL d   1      15.390  18.533   0.370 +0.01 +0.34    -0.278 OA
DOCKED: BRANCH  28  29
DOCKED: ATOM     29  P   UNL d   1      16.644  19.182   1.107 -0.02 -0.23    +0.473 P 
DOCKED: ATOM     30  O   UNL d   1      16.401  20.504   1.740 -0.01 +0.06    -0.228 OA
DOCKED: BRANCH  29  31
DOCKED: ATOM     31  O   UNL d   1      17.052  17.976   2.077 -0.02 +0.11    -0.303 OA
DOCKED: ATOM     32  H   UNL d   1      16.305  17.335   2.112 +0.02 -0.10    +0.222 HD
DOCKED: ENDBRANCH  29  31
DOCKED: BRANCH  29  33
DOCKED: ATOM     33  O   UNL d   1      17.764  19.119  -0.022 -0.03 +0.15    -0.303 OA
DOCKED: ATOM     34  H   UNL d   1      17.404  18.637  -0.806 -0.02 -0.19    +0.222 HD
DOCKED: ENDBRANCH  29  33
DOCKED: ENDBRANCH  28  29
DOCKED: ENDBRANCH   3  28
DOCKED: BRANCH   5  35
DOCKED: ATOM     35  O   UNL d   1      11.742  15.739   0.976 -0.20 +0.15    -0.278 OA
DOCKED: BRANCH  35  36
DOCKED: ATOM     36  P   UNL d   1      10.599  14.983   1.792 -0.20 -0.13    +0.473 P 
DOCKED: ATOM     37  O   UNL d   1      10.015  15.745   2.939 -0.19 +0.05    -0.228 OA
DOCKED: BRANCH  36  38
DOCKED: ATOM     38  O   UNL d   1       9.555  14.632   0.641 -0.10 +0.07    -0.303 OA
DOCKED: ATOM     39  H   UNL d   1       9.347  15.447   0.136 +0.03 -0.07    +0.222 HD
DOCKED: ENDBRANCH  36  38
DOCKED: BRANCH  36  40
DOCKED: ATOM     40  O   UNL d   1      11.285  13.588   2.125 -0.20 +0.08    -0.303 OA
DOCKED: ATOM     41  H   UNL d   1      12.068  13.421   1.554 +0.09 -0.07    +0.222 HD
DOCKED: ENDBRANCH  36  40
DOCKED: ENDBRANCH  35  36
DOCKED: ENDBRANCH   5  35
DOCKED: BRANCH   4  42
DOCKED: ATOM     42  O   UNL d   1      14.242  16.619   2.188 -0.06 +0.14    -0.278 OA
DOCKED: BRANCH  42  43
DOCKED: ATOM     43  P   UNL d   1      15.053  15.258   1.997 -0.11 -0.20    +0.473 P 
DOCKED: ATOM     44  O   UNL d   1      15.539  14.571   3.226 -0.07 +0.03    -0.228 OA
DOCKED: BRANCH  43  45
DOCKED: ATOM     45  O   UNL d   1      14.063  14.383   1.110 -0.28 +0.13    -0.303 OA
DOCKED: ATOM     46  H   UNL d   1      13.136  14.480   1.407 +0.10 -0.09    +0.222 HD
DOCKED: ENDBRANCH  43  45
DOCKED: BRANCH  43  47
DOCKED: ATOM     47  O   UNL d   1      16.183  15.652   0.931 -0.15 +0.26    -0.303 OA
DOCKED: ATOM     48  H   UNL d   1      16.074  16.591   0.677 -0.36 -0.31    +0.222 HD
DOCKED: ENDBRANCH  43  47
DOCKED: ENDBRANCH  42  43
DOCKED: ENDBRANCH   4  42
DOCKED: TORSDOF 24
DOCKED: TER
DOCKED: ENDMDL
________________________________________________________________________________


	BEGINNING GENETIC ALGORITHM DOCKING 75 of 100
Run: 75 Seed: 2108209837 1670940118 [ Run 75 of 100 GA/GALS ]
Beginning LAMARCKIAN GENETIC ALGORITHM (LGA), with a maximum of 25000000 energy evaluations.

Final-Value: -17.940


	FINAL GENETIC ALGORITHM DOCKED STATE
	_______________________________________________


Detailed state:  trans 12.632 9.961 -16.809 quatxyzw 0.381110 -0.685988 0.608593 0.117431 center 0.035 0.082 -0.065 ntor 24 180.0000 29.5025 63.2174 86.6048 21.7458 -157.4496 55.0125 -80.8907 104.1129 76.1525 180.0000 145.2768 59.4934 121.5482 -48.8167 112.6601 88.1369 173.4538 24.4076 -15.9382 179.7401 -12.9652 2.8996 179.2206
State:	 12.632   9.961 -16.809   0.384 -0.691  0.613 166.512    180.00   29.50   63.22   86.60   21.75 -157.45   55.01  -80.89  104.11   76.15  180.00  145.28   59.49  121.55  -48.82  112.66   88.14  173.45   24.41  -15.94  179.74  -12.97    2.90  179.22

DOCKED: MODEL       75
DOCKED: USER    Run = 75
DOCKED: USER    DPF = D:/Protein_go_brrr/autodock/final/mut_Y35F/IHP/dock.dpf
DOCKED: USER  
DOCKED: USER    Estimated Free Energy of Binding    =   +3.32 kcal/mol  [=(1)+(2)+(3)-(4)]
DOCKED: USER    
DOCKED: USER    (1) Final Intermolecular Energy     =   -3.84 kcal/mol
DOCKED: USER        vdW + Hbond + desolv Energy     =   -3.77 kcal/mol
DOCKED: USER        Electrostatic Energy            =   -0.07 kcal/mol
DOCKED: USER    (2) Final Total Internal Energy     =  -14.10 kcal/mol
DOCKED: USER    (3) Torsional Free Energy           =   +7.16 kcal/mol
DOCKED: USER    (4) Unbound System's Energy  [=(2)] =  -14.10 kcal/mol
DOCKED: USER    
DOCKED: USER    
DOCKED: USER    NEWDPF move IHP_ideal_opt.pdbqt
DOCKED: USER    NEWDPF about 0.035000 0.082000 -0.065000
DOCKED: USER    NEWDPF tran0 12.631811 9.961477 -16.809417
DOCKED: USER    NEWDPF quaternion0 0.381110 -0.685988 0.608593 0.117431
DOCKED: USER    NEWDPF axisangle0 0.383766 -0.690768 0.612833 166.512326
DOCKED: USER    NEWDPF quat0 0.383766 -0.690768 0.612833 166.512326
DOCKED: USER    NEWDPF dihe0 180.00 29.50 63.22 86.60 21.75 -157.45 55.01 -80.89 104.11 76.15 180.00 145.28 59.49 121.55 -48.82 112.66 88.14 173.45 24.41 -15.94 179.74 -12.97 2.90 179.22 
DOCKED: USER  keepresnum = 1 
DOCKED: USER  
DOCKED: REMARK  24 active torsions:
DOCKED: REMARK  status: ('A' for Active; 'I' for Inactive)
DOCKED: REMARK    1  A    between atoms: C_1  and  O_7 
DOCKED: REMARK    2  A    between atoms: C_2  and  O_12 
DOCKED: REMARK    3  A    between atoms: C_3  and  O_17 
DOCKED: REMARK    4  A    between atoms: C_4  and  O_22 
DOCKED: REMARK    5  A    between atoms: C_5  and  O_27 
DOCKED: REMARK    6  A    between atoms: C_6  and  O_32 
DOCKED: REMARK    7  A    between atoms: O_7  and  P_8 
DOCKED: REMARK    8  A    between atoms: P_8  and  O_10 
DOCKED: REMARK    9  A    between atoms: P_8  and  O_11 
DOCKED: REMARK   10  A    between atoms: O_12  and  P_13 
DOCKED: REMARK   11  A    between atoms: P_13  and  O_15 
DOCKED: REMARK   12  A    between atoms: P_13  and  O_16 
DOCKED: REMARK   13  A    between atoms: O_17  and  P_18 
DOCKED: REMARK   14  A    between atoms: P_18  and  O_20 
DOCKED: REMARK   15  A    between atoms: P_18  and  O_21 
DOCKED: REMARK   16  A    between atoms: O_22  and  P_23 
DOCKED: REMARK   17  A    between atoms: P_23  and  O_25 
DOCKED: REMARK   18  A    between atoms: P_23  and  O_26 
DOCKED: REMARK   19  A    between atoms: O_27  and  P_28 
DOCKED: REMARK   20  A    between atoms: P_28  and  O_30 
DOCKED: REMARK   21  A    between atoms: P_28  and  O_31 
DOCKED: REMARK   22  A    between atoms: O_32  and  P_33 
DOCKED: REMARK   23  A    between atoms: P_33  and  O_35 
DOCKED: REMARK   24  A    between atoms: P_33  and  O_36 
DOCKED: USER                              x       y       z     vdW  Elec       q    Type
DOCKED: USER                           _______ _______ _______ _____ _____    ______ ____
DOCKED: ROOT
DOCKED: ATOM      1  C   UNL d   1      12.609   8.565 -15.792 -0.13 -0.04    +0.194 C 
DOCKED: ATOM      2  C   UNL d   1      13.535   9.696 -15.341 -0.11 -0.05    +0.194 C 
DOCKED: ATOM      3  C   UNL d   1      14.316  10.292 -16.515 -0.07 -0.04    +0.194 C 
DOCKED: ATOM      4  C   UNL d   1      13.423  10.707 -17.682 -0.02 -0.02    +0.194 C 
DOCKED: ATOM      5  C   UNL d   1      12.405   9.650 -18.091 -0.02 -0.02    +0.194 C 
DOCKED: ATOM      6  C   UNL d   1      11.668   9.011 -16.912 -0.05 -0.02    +0.194 C 
DOCKED: ENDROOT
DOCKED: BRANCH   1   7
DOCKED: ATOM      7  O   UNL d   1      11.797   8.184 -14.680 -0.14 +0.05    -0.278 OA
DOCKED: BRANCH   7   8
DOCKED: ATOM      8  P   UNL d   1      12.234   6.908 -13.823 -0.34 -0.10    +0.473 P 
DOCKED: ATOM      9  O   UNL d   1      12.704   7.207 -12.442 -0.93 +0.06    -0.228 OA
DOCKED: BRANCH   8  10
DOCKED: ATOM     10  O   UNL d   1      10.951   5.961 -13.858 -0.35 +0.04    -0.303 OA
DOCKED: ATOM     11  H   UNL d   1      10.397   6.189 -14.628 +0.10 -0.04    +0.222 HD
DOCKED: ENDBRANCH   8  10
DOCKED: BRANCH   8  12
DOCKED: ATOM     12  O   UNL d   1      13.256   6.119 -14.748 -0.19 +0.05    -0.303 OA
DOCKED: ATOM     13  H   UNL d   1      13.222   6.404 -15.690 +0.06 -0.03    +0.222 HD
DOCKED: ENDBRANCH   8  12
DOCKED: ENDBRANCH   7   8
DOCKED: ENDBRANCH   1   7
DOCKED: BRANCH   2  14
DOCKED: ATOM     14  O   UNL d   1      12.748  10.734 -14.744 -0.06 +0.05    -0.278 OA
DOCKED: BRANCH  14  15
DOCKED: ATOM     15  P   UNL d   1      12.999  11.016 -13.187 -0.13 -0.10    +0.473 P 
DOCKED: ATOM     16  O   UNL d   1      12.228  12.144 -12.576 -0.11 +0.04    -0.228 OA
DOCKED: BRANCH  15  17
DOCKED: ATOM     17  O   UNL d   1      12.704   9.616 -12.487 -0.48 +0.09    -0.303 OA
DOCKED: ATOM     18  H   UNL d   1      12.008   9.124 -12.964 +0.11 -0.04    +0.222 HD
DOCKED: ENDBRANCH  15  17
DOCKED: BRANCH  15  19
DOCKED: ATOM     19  O   UNL d   1      14.581  11.114 -13.052 -0.15 +0.07    -0.303 OA
DOCKED: ATOM     20  H   UNL d   1      14.996  11.405 -13.885 +0.05 -0.04    +0.222 HD
DOCKED: ENDBRANCH  15  19
DOCKED: ENDBRANCH  14  15
DOCKED: ENDBRANCH   2  14
DOCKED: BRANCH   6  21
DOCKED: ATOM     21  O   UNL d   1      11.029   7.839 -17.412 -0.03 +0.03    -0.278 OA
DOCKED: BRANCH  21  22
DOCKED: ATOM     22  P   UNL d   1      11.886   6.519 -17.672 -0.06 -0.04    +0.473 P 
DOCKED: ATOM     23  O   UNL d   1      13.366   6.652 -17.792 -0.11 +0.02    -0.228 OA
DOCKED: BRANCH  22  24
DOCKED: ATOM     24  O   UNL d   1      11.395   5.574 -16.488 -0.12 +0.02    -0.303 OA
DOCKED: ATOM     25  H   UNL d   1      11.365   6.112 -15.656 +0.09 -0.02    +0.222 HD
DOCKED: ENDBRANCH  22  24
DOCKED: BRANCH  22  26
DOCKED: ATOM     26  O   UNL d   1      11.132   5.884 -18.936 -0.03 +0.02    -0.303 OA
DOCKED: ATOM     27  H   UNL d   1      10.720   6.602 -19.459 +0.02 -0.02    +0.222 HD
DOCKED: ENDBRANCH  22  26
DOCKED: ENDBRANCH  21  22
DOCKED: ENDBRANCH   6  21
DOCKED: BRANCH   3  28
DOCKED: ATOM     28  O   UNL d   1      14.924  11.493 -16.060 -0.04 +0.04    -0.278 OA
DOCKED: BRANCH  28  29
DOCKED: ATOM     29  P   UNL d   1      16.446  11.496 -15.590 -0.07 -0.07    +0.473 P 
DOCKED: ATOM     30  O   UNL d   1      17.448  11.701 -16.667 -0.03 +0.03    -0.228 OA
DOCKED: BRANCH  29  31
DOCKED: ATOM     31  O   UNL d   1      16.380  12.606 -14.438 -0.04 +0.04    -0.303 OA
DOCKED: ATOM     32  H   UNL d   1      16.444  12.155 -13.564 +0.04 -0.03    +0.222 HD
DOCKED: ENDBRANCH  29  31
DOCKED: BRANCH  29  33
DOCKED: ATOM     33  O   UNL d   1      16.543  10.138 -14.765 +0.05 +0.08    -0.303 OA
DOCKED: ATOM     34  H   UNL d   1      15.637   9.873 -14.474 -0.46 -0.10    +0.222 HD
DOCKED: ENDBRANCH  29  33
DOCKED: ENDBRANCH  28  29
DOCKED: ENDBRANCH   3  28
DOCKED: BRANCH   5  35
DOCKED: ATOM     35  O   UNL d   1      11.429  10.335 -18.874 -0.00 +0.02    -0.278 OA
DOCKED: BRANCH  35  36
DOCKED: ATOM     36  P   UNL d   1      10.933   9.720 -20.259 -0.00 -0.03    +0.473 P 
DOCKED: ATOM     37  O   UNL d   1       9.451   9.697 -20.460 -0.00 +0.01    -0.228 OA
DOCKED: BRANCH  36  38
DOCKED: ATOM     38  O   UNL d   1      11.722  10.614 -21.315 +0.00 +0.02    -0.303 OA
DOCKED: ATOM     39  H   UNL d   1      12.600  10.849 -20.944 +0.00 -0.01    +0.222 HD
DOCKED: ENDBRANCH  36  38
DOCKED: BRANCH  36  40
DOCKED: ATOM     40  O   UNL d   1      11.689   8.321 -20.301 -0.00 +0.02    -0.303 OA
DOCKED: ATOM     41  H   UNL d   1      11.781   7.931 -19.403 +0.01 -0.02    +0.222 HD
DOCKED: ENDBRANCH  36  40
DOCKED: ENDBRANCH  35  36
DOCKED: ENDBRANCH   5  35
DOCKED: BRANCH   4  42
DOCKED: ATOM     42  O   UNL d   1      14.283  10.920 -18.807 -0.01 +0.03    -0.278 OA
DOCKED: BRANCH  42  43
DOCKED: ATOM     43  P   UNL d   1      15.024   9.667 -19.459 -0.00 -0.05    +0.473 P 
DOCKED: ATOM     44  O   UNL d   1      16.430   9.860 -19.912 -0.01 +0.02    -0.228 OA
DOCKED: BRANCH  43  45
DOCKED: ATOM     45  O   UNL d   1      14.846   8.540 -18.351 -0.04 +0.04    -0.303 OA
DOCKED: ATOM     46  H   UNL d   1      14.192   7.867 -18.626 +0.03 -0.03    +0.222 HD
DOCKED: ENDBRANCH  43  45
DOCKED: BRANCH  43  47
DOCKED: ATOM     47  O   UNL d   1      13.995   9.180 -20.588 -0.00 +0.02    -0.303 OA
DOCKED: ATOM     48  H   UNL d   1      13.079   9.307 -20.265 +0.00 -0.02    +0.222 HD
DOCKED: ENDBRANCH  43  47
DOCKED: ENDBRANCH  42  43
DOCKED: ENDBRANCH   4  42
DOCKED: TORSDOF 24
DOCKED: TER
DOCKED: ENDMDL
________________________________________________________________________________


	BEGINNING GENETIC ALGORITHM DOCKING 76 of 100
Run: 76 Seed: 1608657972 1955913798 [ Run 76 of 100 GA/GALS ]
Beginning LAMARCKIAN GENETIC ALGORITHM (LGA), with a maximum of 25000000 energy evaluations.

Final-Value: -20.620


	FINAL GENETIC ALGORITHM DOCKED STATE
	_______________________________________________


Detailed state:  trans 14.950 13.384 -9.995 quatxyzw -0.053477 -0.512855 0.230469 -0.825230 center 0.035 0.082 -0.065 ntor 24 101.4972 101.4427 154.6285 16.4165 68.5623 128.9121 45.1640 -120.5430 115.1259 -47.1928 9.9471 -169.9625 -37.3561 83.7915 62.2894 -118.5112 162.5871 156.9332 30.5449 -40.6888 -178.7464 44.0300 26.3267 -176.2880
State:	 14.950  13.384  -9.995  -0.095 -0.908  0.408 -68.776    101.50  101.44  154.63   16.42   68.56  128.91   45.16 -120.54  115.13  -47.19    9.95 -169.96  -37.36   83.79   62.29 -118.51  162.59  156.93   30.54  -40.69 -178.75   44.03   26.33 -176.29

DOCKED: MODEL       76
DOCKED: USER    Run = 76
DOCKED: USER    DPF = D:/Protein_go_brrr/autodock/final/mut_Y35F/IHP/dock.dpf
DOCKED: USER  
DOCKED: USER    Estimated Free Energy of Binding    =   +1.67 kcal/mol  [=(1)+(2)+(3)-(4)]
DOCKED: USER    
DOCKED: USER    (1) Final Intermolecular Energy     =   -5.49 kcal/mol
DOCKED: USER        vdW + Hbond + desolv Energy     =   -5.50 kcal/mol
DOCKED: USER        Electrostatic Energy            =   +0.01 kcal/mol
DOCKED: USER    (2) Final Total Internal Energy     =  -15.13 kcal/mol
DOCKED: USER    (3) Torsional Free Energy           =   +7.16 kcal/mol
DOCKED: USER    (4) Unbound System's Energy  [=(2)] =  -15.13 kcal/mol
DOCKED: USER    
DOCKED: USER    
DOCKED: USER    NEWDPF move IHP_ideal_opt.pdbqt
DOCKED: USER    NEWDPF about 0.035000 0.082000 -0.065000
DOCKED: USER    NEWDPF tran0 14.949616 13.383932 -9.995455
DOCKED: USER    NEWDPF quaternion0 -0.053477 -0.512855 0.230469 -0.825230
DOCKED: USER    NEWDPF axisangle0 -0.094684 -0.908034 0.408056 -68.776427
DOCKED: USER    NEWDPF quat0 -0.094684 -0.908034 0.408056 -68.776427
DOCKED: USER    NEWDPF dihe0 101.50 101.44 154.63 16.42 68.56 128.91 45.16 -120.54 115.13 -47.19 9.95 -169.96 -37.36 83.79 62.29 -118.51 162.59 156.93 30.54 -40.69 -178.75 44.03 26.33 -176.29 
DOCKED: USER  keepresnum = 1 
DOCKED: USER  
DOCKED: REMARK  24 active torsions:
DOCKED: REMARK  status: ('A' for Active; 'I' for Inactive)
DOCKED: REMARK    1  A    between atoms: C_1  and  O_7 
DOCKED: REMARK    2  A    between atoms: C_2  and  O_12 
DOCKED: REMARK    3  A    between atoms: C_3  and  O_17 
DOCKED: REMARK    4  A    between atoms: C_4  and  O_22 
DOCKED: REMARK    5  A    between atoms: C_5  and  O_27 
DOCKED: REMARK    6  A    between atoms: C_6  and  O_32 
DOCKED: REMARK    7  A    between atoms: O_7  and  P_8 
DOCKED: REMARK    8  A    between atoms: P_8  and  O_10 
DOCKED: REMARK    9  A    between atoms: P_8  and  O_11 
DOCKED: REMARK   10  A    between atoms: O_12  and  P_13 
DOCKED: REMARK   11  A    between atoms: P_13  and  O_15 
DOCKED: REMARK   12  A    between atoms: P_13  and  O_16 
DOCKED: REMARK   13  A    between atoms: O_17  and  P_18 
DOCKED: REMARK   14  A    between atoms: P_18  and  O_20 
DOCKED: REMARK   15  A    between atoms: P_18  and  O_21 
DOCKED: REMARK   16  A    between atoms: O_22  and  P_23 
DOCKED: REMARK   17  A    between atoms: P_23  and  O_25 
DOCKED: REMARK   18  A    between atoms: P_23  and  O_26 
DOCKED: REMARK   19  A    between atoms: O_27  and  P_28 
DOCKED: REMARK   20  A    between atoms: P_28  and  O_30 
DOCKED: REMARK   21  A    between atoms: P_28  and  O_31 
DOCKED: REMARK   22  A    between atoms: O_32  and  P_33 
DOCKED: REMARK   23  A    between atoms: P_33  and  O_35 
DOCKED: REMARK   24  A    between atoms: P_33  and  O_36 
DOCKED: USER                              x       y       z     vdW  Elec       q    Type
DOCKED: USER                           _______ _______ _______ _____ _____    ______ ____
DOCKED: ROOT
DOCKED: ATOM      1  C   UNL d   1      15.010  13.024  -8.307 -0.13 -0.05    +0.194 C 
DOCKED: ATOM      2  C   UNL d   1      15.135  11.821  -9.244 -0.21 -0.07    +0.194 C 
DOCKED: ATOM      3  C   UNL d   1      14.137  11.899 -10.402 -0.06 -0.08    +0.194 C 
DOCKED: ATOM      4  C   UNL d   1      14.192  13.226 -11.155 -0.07 -0.04    +0.194 C 
DOCKED: ATOM      5  C   UNL d   1      14.186  14.453 -10.251 -0.03 -0.03    +0.194 C 
DOCKED: ATOM      6  C   UNL d   1      15.140  14.349  -9.059 -0.03 -0.04    +0.194 C 
DOCKED: ENDROOT
DOCKED: BRANCH   1   7
DOCKED: ATOM      7  O   UNL d   1      16.081  12.964  -7.361 -0.07 +0.07    -0.278 OA
DOCKED: BRANCH   7   8
DOCKED: ATOM      8  P   UNL d   1      15.827  12.216  -5.973 -0.22 -0.14    +0.473 P 
DOCKED: ATOM      9  O   UNL d   1      14.606  11.366  -5.928 -0.43 +0.06    -0.228 OA
DOCKED: BRANCH   8  10
DOCKED: ATOM     10  O   UNL d   1      17.173  11.396  -5.724 -0.26 +0.12    -0.303 OA
DOCKED: ATOM     11  H   UNL d   1      17.344  10.811  -6.485 -0.18 -0.11    +0.222 HD
DOCKED: ENDBRANCH   8  10
DOCKED: BRANCH   8  12
DOCKED: ATOM     12  O   UNL d   1      15.921  13.354  -4.868 -0.17 +0.09    -0.303 OA
DOCKED: ATOM     13  H   UNL d   1      15.296  14.097  -5.025 +0.10 -0.09    +0.222 HD
DOCKED: ENDBRANCH   8  12
DOCKED: ENDBRANCH   7   8
DOCKED: ENDBRANCH   1   7
DOCKED: BRANCH   2  14
DOCKED: ATOM     14  O   UNL d   1      16.461  11.787  -9.787 -0.16 +0.07    -0.278 OA
DOCKED: BRANCH  14  15
DOCKED: ATOM     15  P   UNL d   1      17.546  10.939  -8.970 -0.21 -0.13    +0.473 P 
DOCKED: ATOM     16  O   UNL d   1      18.500  10.114  -9.776 -0.86 +0.12    -0.228 OA
DOCKED: BRANCH  15  17
DOCKED: ATOM     17  O   UNL d   1      18.282  12.022  -8.063 -0.11 +0.08    -0.303 OA
DOCKED: ATOM     18  H   UNL d   1      17.649  12.478  -7.476 +0.09 -0.06    +0.222 HD
DOCKED: ENDBRANCH  15  17
DOCKED: BRANCH  15  19
DOCKED: ATOM     19  O   UNL d   1      16.695  10.142  -7.888 -0.46 +0.08    -0.303 OA
DOCKED: ATOM     20  H   UNL d   1      16.017  10.708  -7.475 +0.12 -0.07    +0.222 HD
DOCKED: ENDBRANCH  15  19
DOCKED: ENDBRANCH  14  15
DOCKED: ENDBRANCH   2  14
DOCKED: BRANCH   6  21
DOCKED: ATOM     21  O   UNL d   1      14.776  15.384  -8.149 -0.02 +0.07    -0.278 OA
DOCKED: BRANCH  21  22
DOCKED: ATOM     22  P   UNL d   1      13.515  15.189  -7.191 -0.10 -0.15    +0.473 P 
DOCKED: ATOM     23  O   UNL d   1      13.744  14.622  -5.831 -0.28 +0.11    -0.228 OA
DOCKED: BRANCH  22  24
DOCKED: ATOM     24  O   UNL d   1      12.866  16.642  -7.208 -0.07 +0.10    -0.303 OA
DOCKED: ATOM     25  H   UNL d   1      13.397  17.210  -7.822 +0.04 -0.06    +0.222 HD
DOCKED: ENDBRANCH  22  24
DOCKED: BRANCH  22  26
DOCKED: ATOM     26  O   UNL d   1      12.513  14.368  -8.136 -0.13 +0.06    -0.303 OA
DOCKED: ATOM     27  H   UNL d   1      12.499  14.778  -9.024 +0.07 -0.04    +0.222 HD
DOCKED: ENDBRANCH  22  26
DOCKED: ENDBRANCH  21  22
DOCKED: ENDBRANCH   6  21
DOCKED: BRANCH   3  28
DOCKED: ATOM     28  O   UNL d   1      14.506  10.910 -11.353 -0.25 +0.11    -0.278 OA
DOCKED: BRANCH  28  29
DOCKED: ATOM     29  P   UNL d   1      13.418  10.299 -12.343 -0.17 -0.16    +0.473 P 
DOCKED: ATOM     30  O   UNL d   1      13.586   8.860 -12.671 -0.60 +0.10    -0.228 OA
DOCKED: BRANCH  29  31
DOCKED: ATOM     31  O   UNL d   1      12.077  10.717 -11.575 -0.14 +0.11    -0.303 OA
DOCKED: ATOM     32  H   UNL d   1      11.733  11.549 -11.974 +0.08 -0.05    +0.222 HD
DOCKED: ENDBRANCH  29  31
DOCKED: BRANCH  29  33
DOCKED: ATOM     33  O   UNL d   1      13.460  11.324 -13.560 -0.08 +0.06    -0.303 OA
DOCKED: ATOM     34  H   UNL d   1      13.201  12.221 -13.234 +0.05 -0.04    +0.222 HD
DOCKED: ENDBRANCH  29  33
DOCKED: ENDBRANCH  28  29
DOCKED: ENDBRANCH   3  28
DOCKED: BRANCH   5  35
DOCKED: ATOM     35  O   UNL d   1      14.644  15.533 -11.063 -0.00 +0.04    -0.278 OA
DOCKED: BRANCH  35  36
DOCKED: ATOM     36  P   UNL d   1      14.274  17.037 -10.683 +0.00 -0.06    +0.473 P 
DOCKED: ATOM     37  O   UNL d   1      14.228  17.998 -11.828 +0.00 +0.02    -0.228 OA
DOCKED: BRANCH  36  38
DOCKED: ATOM     38  O   UNL d   1      12.885  16.851  -9.928 -0.00 +0.04    -0.303 OA
DOCKED: ATOM     39  H   UNL d   1      12.959  16.100  -9.300 +0.04 -0.03    +0.222 HD
DOCKED: ENDBRANCH  36  38
DOCKED: BRANCH  36  40
DOCKED: ATOM     40  O   UNL d   1      15.305  17.356  -9.515 -0.00 +0.05    -0.303 OA
DOCKED: ATOM     41  H   UNL d   1      14.945  17.109  -8.634 +0.02 -0.05    +0.222 HD
DOCKED: ENDBRANCH  36  40
DOCKED: ENDBRANCH  35  36
DOCKED: ENDBRANCH   5  35
DOCKED: BRANCH   4  42
DOCKED: ATOM     42  O   UNL d   1      13.012  13.293 -11.963 -0.04 +0.05    -0.278 OA
DOCKED: BRANCH  42  43
DOCKED: ATOM     43  P   UNL d   1      11.606  13.550 -11.256 -0.10 -0.07    +0.473 P 
DOCKED: ATOM     44  O   UNL d   1      10.381  13.115 -11.984 -0.18 +0.02    -0.228 OA
DOCKED: BRANCH  43  45
DOCKED: ATOM     45  O   UNL d   1      11.798  12.860  -9.835 -0.22 +0.08    -0.303 OA
DOCKED: ATOM     46  H   UNL d   1      11.945  11.896  -9.922 -0.06 -0.10    +0.222 HD
DOCKED: ENDBRANCH  43  45
DOCKED: BRANCH  43  47
DOCKED: ATOM     47  O   UNL d   1      11.667  15.105 -10.873 -0.02 +0.03    -0.303 OA
DOCKED: ATOM     48  H   UNL d   1      12.457  15.509 -11.289 +0.03 -0.02    +0.222 HD
DOCKED: ENDBRANCH  43  47
DOCKED: ENDBRANCH  42  43
DOCKED: ENDBRANCH   4  42
DOCKED: TORSDOF 24
DOCKED: TER
DOCKED: ENDMDL
________________________________________________________________________________


	BEGINNING GENETIC ALGORITHM DOCKING 77 of 100
Run: 77 Seed: 984390606 181034599 [ Run 77 of 100 GA/GALS ]
Beginning LAMARCKIAN GENETIC ALGORITHM (LGA), with a maximum of 25000000 energy evaluations.

Final-Value: -18.615


	FINAL GENETIC ALGORITHM DOCKED STATE
	_______________________________________________


Detailed state:  trans 13.278 16.771 2.032 quatxyzw -0.213628 0.270085 -0.836936 0.425388 center 0.035 0.082 -0.065 ntor 24 102.1665 37.5300 -179.3123 37.6007 -19.5193 -103.0317 -122.4037 -91.3274 69.7891 109.7570 20.6205 -85.6986 157.2884 -174.4238 31.1129 -162.4035 24.0122 -80.7521 51.1405 11.2849 169.7201 13.7849 29.4681 180.0000
State:	 13.278  16.771   2.032  -0.236  0.298 -0.925 129.650    102.17   37.53 -179.31   37.60  -19.52 -103.03 -122.40  -91.33   69.79  109.76   20.62  -85.70  157.29 -174.42   31.11 -162.40   24.01  -80.75   51.14   11.28  169.72   13.78   29.47  180.00

DOCKED: MODEL       77
DOCKED: USER    Run = 77
DOCKED: USER    DPF = D:/Protein_go_brrr/autodock/final/mut_Y35F/IHP/dock.dpf
DOCKED: USER  
DOCKED: USER    Estimated Free Energy of Binding    =   +1.14 kcal/mol  [=(1)+(2)+(3)-(4)]
DOCKED: USER    
DOCKED: USER    (1) Final Intermolecular Energy     =   -6.02 kcal/mol
DOCKED: USER        vdW + Hbond + desolv Energy     =   -5.68 kcal/mol
DOCKED: USER        Electrostatic Energy            =   -0.34 kcal/mol
DOCKED: USER    (2) Final Total Internal Energy     =  -12.59 kcal/mol
DOCKED: USER    (3) Torsional Free Energy           =   +7.16 kcal/mol
DOCKED: USER    (4) Unbound System's Energy  [=(2)] =  -12.59 kcal/mol
DOCKED: USER    
DOCKED: USER    
DOCKED: USER    NEWDPF move IHP_ideal_opt.pdbqt
DOCKED: USER    NEWDPF about 0.035000 0.082000 -0.065000
DOCKED: USER    NEWDPF tran0 13.277676 16.771113 2.032226
DOCKED: USER    NEWDPF quaternion0 -0.213628 0.270085 -0.836936 0.425388
DOCKED: USER    NEWDPF axisangle0 -0.236050 0.298433 -0.924780 129.649520
DOCKED: USER    NEWDPF quat0 -0.236050 0.298433 -0.924780 129.649520
DOCKED: USER    NEWDPF dihe0 102.17 37.53 -179.31 37.60 -19.52 -103.03 -122.40 -91.33 69.79 109.76 20.62 -85.70 157.29 -174.42 31.11 -162.40 24.01 -80.75 51.14 11.28 169.72 13.78 29.47 180.00 
DOCKED: USER  keepresnum = 1 
DOCKED: USER  
DOCKED: REMARK  24 active torsions:
DOCKED: REMARK  status: ('A' for Active; 'I' for Inactive)
DOCKED: REMARK    1  A    between atoms: C_1  and  O_7 
DOCKED: REMARK    2  A    between atoms: C_2  and  O_12 
DOCKED: REMARK    3  A    between atoms: C_3  and  O_17 
DOCKED: REMARK    4  A    between atoms: C_4  and  O_22 
DOCKED: REMARK    5  A    between atoms: C_5  and  O_27 
DOCKED: REMARK    6  A    between atoms: C_6  and  O_32 
DOCKED: REMARK    7  A    between atoms: O_7  and  P_8 
DOCKED: REMARK    8  A    between atoms: P_8  and  O_10 
DOCKED: REMARK    9  A    between atoms: P_8  and  O_11 
DOCKED: REMARK   10  A    between atoms: O_12  and  P_13 
DOCKED: REMARK   11  A    between atoms: P_13  and  O_15 
DOCKED: REMARK   12  A    between atoms: P_13  and  O_16 
DOCKED: REMARK   13  A    between atoms: O_17  and  P_18 
DOCKED: REMARK   14  A    between atoms: P_18  and  O_20 
DOCKED: REMARK   15  A    between atoms: P_18  and  O_21 
DOCKED: REMARK   16  A    between atoms: O_22  and  P_23 
DOCKED: REMARK   17  A    between atoms: P_23  and  O_25 
DOCKED: REMARK   18  A    between atoms: P_23  and  O_26 
DOCKED: REMARK   19  A    between atoms: O_27  and  P_28 
DOCKED: REMARK   20  A    between atoms: P_28  and  O_30 
DOCKED: REMARK   21  A    between atoms: P_28  and  O_31 
DOCKED: REMARK   22  A    between atoms: O_32  and  P_33 
DOCKED: REMARK   23  A    between atoms: P_33  and  O_35 
DOCKED: REMARK   24  A    between atoms: P_33  and  O_36 
DOCKED: USER                              x       y       z     vdW  Elec       q    Type
DOCKED: USER                           _______ _______ _______ _____ _____    ______ ____
DOCKED: ROOT
DOCKED: ATOM      1  C   UNL d   1      13.428  17.454   3.612 -0.01 -0.05    +0.194 C 
DOCKED: ATOM      2  C   UNL d   1      14.729  17.339   2.814 -0.03 -0.07    +0.194 C 
DOCKED: ATOM      3  C   UNL d   1      14.834  15.994   2.093 -0.10 -0.10    +0.194 C 
DOCKED: ATOM      4  C   UNL d   1      13.607  15.668   1.246 -0.18 -0.14    +0.194 C 
DOCKED: ATOM      5  C   UNL d   1      12.281  15.880   1.966 -0.13 -0.08    +0.194 C 
DOCKED: ATOM      6  C   UNL d   1      12.200  17.198   2.738 -0.04 -0.06    +0.194 C 
DOCKED: ENDROOT
DOCKED: BRANCH   1   7
DOCKED: ATOM      7  O   UNL d   1      13.327  18.791   4.109 -0.00 +0.05    -0.278 OA
DOCKED: BRANCH   7   8
DOCKED: ATOM      8  P   UNL d   1      14.310  19.240   5.285 +0.00 -0.05    +0.473 P 
DOCKED: ATOM      9  O   UNL d   1      13.773  20.295   6.188 -0.00 +0.02    -0.228 OA
DOCKED: BRANCH   8  10
DOCKED: ATOM     10  O   UNL d   1      14.653  17.879   6.043 -0.00 +0.02    -0.303 OA
DOCKED: ATOM     11  H   UNL d   1      13.826  17.445   6.325 +0.01 -0.02    +0.222 HD
DOCKED: ENDBRANCH   8  10
DOCKED: BRANCH   8  12
DOCKED: ATOM     12  O   UNL d   1      15.686  19.577   4.567 +0.00 +0.04    -0.303 OA
DOCKED: ATOM     13  H   UNL d   1      15.693  19.334   3.613 +0.01 -0.04    +0.222 HD
DOCKED: ENDBRANCH   8  12
DOCKED: ENDBRANCH   7   8
DOCKED: ENDBRANCH   1   7
DOCKED: BRANCH   2  14
DOCKED: ATOM     14  O   UNL d   1      14.771  18.386   1.837 -0.04 +0.15    -0.278 OA
DOCKED: BRANCH  14  15
DOCKED: ATOM     15  P   UNL d   1      16.203  19.047   1.557 -0.02 -0.22    +0.473 P 
DOCKED: ATOM     16  O   UNL d   1      16.334  20.511   1.842 -0.00 +0.06    -0.228 OA
DOCKED: BRANCH  15  17
DOCKED: ATOM     17  O   UNL d   1      17.213  18.159   2.412 -0.01 +0.09    -0.303 OA
DOCKED: ATOM     18  H   UNL d   1      17.490  17.366   1.915 +0.03 -0.08    +0.222 HD
DOCKED: ENDBRANCH  15  17
DOCKED: BRANCH  15  19
DOCKED: ATOM     19  O   UNL d   1      16.563  18.602   0.073 -0.06 +0.30    -0.303 OA
DOCKED: ATOM     20  H   UNL d   1      16.071  17.803  -0.192 -0.53 -0.48    +0.222 HD
DOCKED: ENDBRANCH  15  19
DOCKED: ENDBRANCH  14  15
DOCKED: ENDBRANCH   2  14
DOCKED: BRANCH   6  21
DOCKED: ATOM     21  O   UNL d   1      11.079  17.094   3.613 -0.05 +0.06    -0.278 OA
DOCKED: BRANCH  21  22
DOCKED: ATOM     22  P   UNL d   1      11.114  16.059   4.827 -0.10 -0.08    +0.473 P 
DOCKED: ATOM     23  O   UNL d   1      12.166  16.233   5.870 -0.05 +0.02    -0.228 OA
DOCKED: BRANCH  22  24
DOCKED: ATOM     24  O   UNL d   1       9.619  16.138   5.366 -0.22 +0.09    -0.303 OA
DOCKED: ATOM     25  H   UNL d   1       9.561  16.895   6.003 -0.48 -0.12    +0.222 HD
DOCKED: ENDBRANCH  22  24
DOCKED: BRANCH  22  26
DOCKED: ATOM     26  O   UNL d   1      11.115  14.654   4.055 -0.11 +0.04    -0.303 OA
DOCKED: ATOM     27  H   UNL d   1      12.029  14.437   3.782 +0.08 -0.03    +0.222 HD
DOCKED: ENDBRANCH  22  26
DOCKED: ENDBRANCH  21  22
DOCKED: ENDBRANCH   6  21
DOCKED: BRANCH   3  28
DOCKED: ATOM     28  O   UNL d   1      15.915  16.085   1.173 -0.11 +0.25    -0.278 OA
DOCKED: BRANCH  28  29
DOCKED: ATOM     29  P   UNL d   1      17.108  15.031   1.228 -0.14 -0.18    +0.473 P 
DOCKED: ATOM     30  O   UNL d   1      18.078  15.103   0.105 -0.21 +0.09    -0.228 OA
DOCKED: BRANCH  29  31
DOCKED: ATOM     31  O   UNL d   1      17.673  15.324   2.696 -0.04 +0.04    -0.303 OA
DOCKED: ATOM     32  H   UNL d   1      18.118  16.203   2.691 +0.03 -0.04    +0.222 HD
DOCKED: ENDBRANCH  29  31
DOCKED: BRANCH  29  33
DOCKED: ATOM     33  O   UNL d   1      16.330  13.655   1.419 -0.20 +0.02    -0.303 OA
DOCKED: ATOM     34  H   UNL d   1      15.510  13.820   1.945 +0.07 -0.03    +0.222 HD
DOCKED: ENDBRANCH  29  33
DOCKED: ENDBRANCH  28  29
DOCKED: ENDBRANCH   3  28
DOCKED: BRANCH   5  35
DOCKED: ATOM     35  O   UNL d   1      11.289  15.930   0.943 -0.19 +0.14    -0.278 OA
DOCKED: BRANCH  35  36
DOCKED: ATOM     36  P   UNL d   1       9.756  15.667   1.296 -0.21 -0.13    +0.473 P 
DOCKED: ATOM     37  O   UNL d   1       9.097  16.718   2.132 -0.20 +0.06    -0.228 OA
DOCKED: BRANCH  36  38
DOCKED: ATOM     38  O   UNL d   1       9.115  15.484  -0.150 -0.27 +0.08    -0.303 OA
DOCKED: ATOM     39  H   UNL d   1       9.817  15.586  -0.828 -0.22 -0.15    +0.222 HD
DOCKED: ENDBRANCH  36  38
DOCKED: BRANCH  36  40
DOCKED: ATOM     40  O   UNL d   1       9.792  14.191   1.888 -0.31 +0.06    -0.303 OA
DOCKED: ATOM     41  H   UNL d   1      10.261  14.156   2.751 +0.12 -0.04    +0.222 HD
DOCKED: ENDBRANCH  36  40
DOCKED: ENDBRANCH  35  36
DOCKED: ENDBRANCH   5  35
DOCKED: BRANCH   4  42
DOCKED: ATOM     42  O   UNL d   1      13.689  14.278   0.914 -0.36 +0.12    -0.278 OA
DOCKED: BRANCH  42  43
DOCKED: ATOM     43  P   UNL d   1      13.498  13.197   2.071 -0.26 -0.08    +0.473 P 
DOCKED: ATOM     44  O   UNL d   1      14.019  13.539   3.424 -0.09 +0.02    -0.228 OA
DOCKED: BRANCH  43  45
DOCKED: ATOM     45  O   UNL d   1      11.932  12.914   2.030 +0.04 +0.10    -0.303 OA
DOCKED: ATOM     46  H   UNL d   1      11.417  13.744   2.082 +0.09 -0.06    +0.222 HD
DOCKED: ENDBRANCH  43  45
DOCKED: BRANCH  43  47
DOCKED: ATOM     47  O   UNL d   1      14.088  11.856   1.421 -1.00 -0.01    -0.303 OA
DOCKED: ATOM     48  H   UNL d   1      15.032  11.767   1.667 -0.18 +0.06    +0.222 HD
DOCKED: ENDBRANCH  43  47
DOCKED: ENDBRANCH  42  43
DOCKED: ENDBRANCH   4  42
DOCKED: TORSDOF 24
DOCKED: TER
DOCKED: ENDMDL
________________________________________________________________________________


	BEGINNING GENETIC ALGORITHM DOCKING 78 of 100
Run: 78 Seed: 451181193 1502596465 [ Run 78 of 100 GA/GALS ]
Beginning LAMARCKIAN GENETIC ALGORITHM (LGA), with a maximum of 25000000 energy evaluations.

Final-Value: -17.151


	FINAL GENETIC ALGORITHM DOCKED STATE
	_______________________________________________


Detailed state:  trans 12.978 10.387 7.255 quatxyzw 0.135985 0.681569 0.251999 0.673401 center 0.035 0.082 -0.065 ntor 24 -76.7148 20.9186 49.9808 33.0828 -47.1291 176.2329 -96.1535 -10.2816 -19.1409 -12.0249 -171.4824 144.9127 -158.0599 -179.8824 -179.8093 43.1309 -75.6033 180.0000 45.9626 -18.1121 -180.0000 -17.6125 -154.8816 29.8596
State:	 12.978  10.387   7.255   0.184  0.922  0.341 95.340    -76.71   20.92   49.98   33.08  -47.13  176.23  -96.15  -10.28  -19.14  -12.02 -171.48  144.91 -158.06 -179.88 -179.81   43.13  -75.60  180.00   45.96  -18.11 -180.00  -17.61 -154.88   29.86

DOCKED: MODEL       78
DOCKED: USER    Run = 78
DOCKED: USER    DPF = D:/Protein_go_brrr/autodock/final/mut_Y35F/IHP/dock.dpf
DOCKED: USER  
DOCKED: USER    Estimated Free Energy of Binding    =   +3.59 kcal/mol  [=(1)+(2)+(3)-(4)]
DOCKED: USER    
DOCKED: USER    (1) Final Intermolecular Energy     =   -3.57 kcal/mol
DOCKED: USER        vdW + Hbond + desolv Energy     =   -3.42 kcal/mol
DOCKED: USER        Electrostatic Energy            =   -0.15 kcal/mol
DOCKED: USER    (2) Final Total Internal Energy     =  -13.58 kcal/mol
DOCKED: USER    (3) Torsional Free Energy           =   +7.16 kcal/mol
DOCKED: USER    (4) Unbound System's Energy  [=(2)] =  -13.58 kcal/mol
DOCKED: USER    
DOCKED: USER    
DOCKED: USER    NEWDPF move IHP_ideal_opt.pdbqt
DOCKED: USER    NEWDPF about 0.035000 0.082000 -0.065000
DOCKED: USER    NEWDPF tran0 12.977671 10.387487 7.255036
DOCKED: USER    NEWDPF quaternion0 0.135985 0.681569 0.251999 0.673401
DOCKED: USER    NEWDPF axisangle0 0.183943 0.921939 0.340871 95.339826
DOCKED: USER    NEWDPF quat0 0.183943 0.921939 0.340871 95.339826
DOCKED: USER    NEWDPF dihe0 -76.71 20.92 49.98 33.08 -47.13 176.23 -96.15 -10.28 -19.14 -12.02 -171.48 144.91 -158.06 -179.88 -179.81 43.13 -75.60 180.00 45.96 -18.11 -180.00 -17.61 -154.88 29.86 
DOCKED: USER  keepresnum = 1 
DOCKED: USER  
DOCKED: REMARK  24 active torsions:
DOCKED: REMARK  status: ('A' for Active; 'I' for Inactive)
DOCKED: REMARK    1  A    between atoms: C_1  and  O_7 
DOCKED: REMARK    2  A    between atoms: C_2  and  O_12 
DOCKED: REMARK    3  A    between atoms: C_3  and  O_17 
DOCKED: REMARK    4  A    between atoms: C_4  and  O_22 
DOCKED: REMARK    5  A    between atoms: C_5  and  O_27 
DOCKED: REMARK    6  A    between atoms: C_6  and  O_32 
DOCKED: REMARK    7  A    between atoms: O_7  and  P_8 
DOCKED: REMARK    8  A    between atoms: P_8  and  O_10 
DOCKED: REMARK    9  A    between atoms: P_8  and  O_11 
DOCKED: REMARK   10  A    between atoms: O_12  and  P_13 
DOCKED: REMARK   11  A    between atoms: P_13  and  O_15 
DOCKED: REMARK   12  A    between atoms: P_13  and  O_16 
DOCKED: REMARK   13  A    between atoms: O_17  and  P_18 
DOCKED: REMARK   14  A    between atoms: P_18  and  O_20 
DOCKED: REMARK   15  A    between atoms: P_18  and  O_21 
DOCKED: REMARK   16  A    between atoms: O_22  and  P_23 
DOCKED: REMARK   17  A    between atoms: P_23  and  O_25 
DOCKED: REMARK   18  A    between atoms: P_23  and  O_26 
DOCKED: REMARK   19  A    between atoms: O_27  and  P_28 
DOCKED: REMARK   20  A    between atoms: P_28  and  O_30 
DOCKED: REMARK   21  A    between atoms: P_28  and  O_31 
DOCKED: REMARK   22  A    between atoms: O_32  and  P_33 
DOCKED: REMARK   23  A    between atoms: P_33  and  O_35 
DOCKED: REMARK   24  A    between atoms: P_33  and  O_36 
DOCKED: USER                              x       y       z     vdW  Elec       q    Type
DOCKED: USER                           _______ _______ _______ _____ _____    ______ ____
DOCKED: ROOT
DOCKED: ATOM      1  C   UNL d   1      11.770   9.869   8.376 -0.08 +0.05    +0.194 C 
DOCKED: ATOM      2  C   UNL d   1      11.731   9.194   7.003 -0.08 +0.04    +0.194 C 
DOCKED: ATOM      3  C   UNL d   1      11.939  10.202   5.871 -0.10 +0.02    +0.194 C 
DOCKED: ATOM      4  C   UNL d   1      13.184  11.066   6.055 -0.06 +0.02    +0.194 C 
DOCKED: ATOM      5  C   UNL d   1      13.323  11.666   7.448 -0.05 +0.02    +0.194 C 
DOCKED: ATOM      6  C   UNL d   1      13.054  10.673   8.580 -0.03 +0.03    +0.194 C 
DOCKED: ENDROOT
DOCKED: BRANCH   1   7
DOCKED: ATOM      7  O   UNL d   1      11.742   8.847   9.375 -0.04 -0.10    -0.278 OA
DOCKED: BRANCH   7   8
DOCKED: ATOM      8  P   UNL d   1      10.351   8.127   9.687 -0.08 +0.27    +0.473 P 
DOCKED: ATOM      9  O   UNL d   1       9.714   8.515  10.974 -0.07 -0.11    -0.228 OA
DOCKED: BRANCH   8  10
DOCKED: ATOM     10  O   UNL d   1       9.449   8.461   8.414 -0.15 -0.13    -0.303 OA
DOCKED: ATOM     11  H   UNL d   1       9.107   7.632   8.029 +0.08 +0.12    +0.222 HD
DOCKED: ENDBRANCH   8  10
DOCKED: BRANCH   8  12
DOCKED: ATOM     12  O   UNL d   1      10.637   6.576   9.494 -0.09 -0.45    -0.303 OA
DOCKED: ATOM     13  H   UNL d   1      11.396   6.395   8.895 +0.04 +0.31    +0.222 HD
DOCKED: ENDBRANCH   8  12
DOCKED: ENDBRANCH   7   8
DOCKED: ENDBRANCH   1   7
DOCKED: BRANCH   2  14
DOCKED: ATOM     14  O   UNL d   1      12.772   8.212   6.936 -0.03 -0.08    -0.278 OA
DOCKED: BRANCH  14  15
DOCKED: ATOM     15  P   UNL d   1      12.307   6.682   6.839 -0.08 +0.25    +0.473 P 
DOCKED: ATOM     16  O   UNL d   1      12.839   5.751   7.883 -0.11 -0.19    -0.228 OA
DOCKED: BRANCH  15  17
DOCKED: ATOM     17  O   UNL d   1      10.716   6.760   6.834 -0.18 -0.20    -0.303 OA
DOCKED: ATOM     18  H   UNL d   1      10.392   7.371   7.524 +0.07 +0.14    +0.222 HD
DOCKED: ENDBRANCH  15  17
DOCKED: BRANCH  15  19
DOCKED: ATOM     19  O   UNL d   1      12.612   6.270   5.334 -0.20 -0.10    -0.303 OA
DOCKED: ATOM     20  H   UNL d   1      12.590   7.041   4.737 +0.10 +0.05    +0.222 HD
DOCKED: ENDBRANCH  15  19
DOCKED: ENDBRANCH  14  15
DOCKED: ENDBRANCH   2  14
DOCKED: BRANCH   6  21
DOCKED: ATOM     21  O   UNL d   1      12.883  11.440   9.770 -0.02 -0.06    -0.278 OA
DOCKED: BRANCH  21  22
DOCKED: ATOM     22  P   UNL d   1      11.503  12.196  10.032 -0.10 +0.12    +0.473 P 
DOCKED: ATOM     23  O   UNL d   1      11.532  13.462  10.819 -0.12 -0.08    -0.228 OA
DOCKED: BRANCH  22  24
DOCKED: ATOM     24  O   UNL d   1      10.925  12.340   8.556 -0.08 -0.05    -0.303 OA
DOCKED: ATOM     25  H   UNL d   1      10.915  13.303   8.322 +0.07 +0.03    +0.222 HD
DOCKED: ENDBRANCH  22  24
DOCKED: BRANCH  22  26
DOCKED: ATOM     26  O   UNL d   1      10.595  11.017  10.630 -0.12 -0.10    -0.303 OA
DOCKED: ATOM     27  H   UNL d   1      11.130  10.201  10.698 +0.05 +0.07    +0.222 HD
DOCKED: ENDBRANCH  22  26
DOCKED: ENDBRANCH  21  22
DOCKED: ENDBRANCH   6  21
DOCKED: BRANCH   3  28
DOCKED: ATOM     28  O   UNL d   1      12.165   9.464   4.676 -0.10 -0.02    -0.278 OA
DOCKED: BRANCH  28  29
DOCKED: ATOM     29  P   UNL d   1      10.950   9.104   3.712 -0.22 -0.01    +0.473 P 
DOCKED: ATOM     30  O   UNL d   1       9.710   9.897   3.918 -0.27 +0.01    -0.228 OA
DOCKED: BRANCH  29  31
DOCKED: ATOM     31  O   UNL d   1      11.672   9.241   2.290 -0.31 +0.06    -0.303 OA
DOCKED: ATOM     32  H   UNL d   1      12.214  10.063   2.292 -0.37 -0.07    +0.222 HD
DOCKED: ENDBRANCH  29  31
DOCKED: BRANCH  29  33
DOCKED: ATOM     33  O   UNL d   1      10.834   7.526   3.896 -0.24 -0.02    -0.303 OA
DOCKED: ATOM     34  H   UNL d   1      10.830   7.315   4.862 +0.10 +0.04    +0.222 HD
DOCKED: ENDBRANCH  29  33
DOCKED: ENDBRANCH  28  29
DOCKED: ENDBRANCH   3  28
DOCKED: BRANCH   5  35
DOCKED: ATOM     35  O   UNL d   1      14.685  12.073   7.561 -0.01 -0.03    -0.278 OA
DOCKED: BRANCH  35  36
DOCKED: ATOM     36  P   UNL d   1      15.808  11.379   6.666 -0.02 +0.07    +0.473 P 
DOCKED: ATOM     37  O   UNL d   1      15.563   9.945   6.319 -0.08 -0.05    -0.228 OA
DOCKED: BRANCH  36  38
DOCKED: ATOM     38  O   UNL d   1      15.872  12.355   5.408 -0.05 -0.04    -0.303 OA
DOCKED: ATOM     39  H   UNL d   1      15.225  12.053   4.735 +0.05 +0.03    +0.222 HD
DOCKED: ENDBRANCH  36  38
DOCKED: BRANCH  36  40
DOCKED: ATOM     40  O   UNL d   1      17.138  11.709   7.473 -0.00 -0.04    -0.303 OA
DOCKED: ATOM     41  H   UNL d   1      17.230  12.673   7.645 +0.01 +0.02    +0.222 HD
DOCKED: ENDBRANCH  36  40
DOCKED: ENDBRANCH  35  36
DOCKED: ENDBRANCH   5  35
DOCKED: BRANCH   4  42
DOCKED: ATOM     42  O   UNL d   1      13.072  12.157   5.135 -0.06 -0.01    -0.278 OA
DOCKED: BRANCH  42  43
DOCKED: ATOM     43  P   UNL d   1      13.482  11.927   3.611 -0.13 -0.01    +0.473 P 
DOCKED: ATOM     44  O   UNL d   1      14.333  12.964   2.964 -0.19 +0.01    -0.228 OA
DOCKED: BRANCH  43  45
DOCKED: ATOM     45  O   UNL d   1      14.134  10.476   3.641 -0.10 -0.05    -0.303 OA
DOCKED: ATOM     46  H   UNL d   1      13.612   9.837   3.115 +0.06 +0.00    +0.222 HD
DOCKED: ENDBRANCH  43  45
DOCKED: BRANCH  43  47
DOCKED: ATOM     47  O   UNL d   1      12.078  11.638   2.894 -0.01 +0.09    -0.303 OA
DOCKED: ATOM     48  H   UNL d   1      11.504  11.126   3.501 +0.00 -0.04    +0.222 HD
DOCKED: ENDBRANCH  43  47
DOCKED: ENDBRANCH  42  43
DOCKED: ENDBRANCH   4  42
DOCKED: TORSDOF 24
DOCKED: TER
DOCKED: ENDMDL
________________________________________________________________________________


	BEGINNING GENETIC ALGORITHM DOCKING 79 of 100
Run: 79 Seed: 156586180 1225345971 [ Run 79 of 100 GA/GALS ]
Beginning LAMARCKIAN GENETIC ALGORITHM (LGA), with a maximum of 25000000 energy evaluations.

Final-Value: -18.949


	FINAL GENETIC ALGORITHM DOCKED STATE
	_______________________________________________


Detailed state:  trans -12.767 6.599 15.982 quatxyzw -0.513511 0.314162 -0.564384 -0.564871 center 0.035 0.082 -0.065 ntor 24 78.0435 -47.7203 147.0752 26.0954 -180.0000 179.9232 -77.3045 -72.5996 -17.2439 -33.4262 170.0875 148.9007 162.7776 -178.7959 81.6252 40.5173 162.4413 179.9534 -148.8408 -3.9722 24.5294 -14.8541 -170.1439 28.3433
State:	-12.767   6.599  15.982  -0.622  0.381 -0.684 -111.213     78.04  -47.72  147.08   26.10 -180.00  179.92  -77.30  -72.60  -17.24  -33.43  170.09  148.90  162.78 -178.80   81.63   40.52  162.44  179.95 -148.84   -3.97   24.53  -14.85 -170.14   28.34

DOCKED: MODEL       79
DOCKED: USER    Run = 79
DOCKED: USER    DPF = D:/Protein_go_brrr/autodock/final/mut_Y35F/IHP/dock.dpf
DOCKED: USER  
DOCKED: USER    Estimated Free Energy of Binding    =   +2.48 kcal/mol  [=(1)+(2)+(3)-(4)]
DOCKED: USER    
DOCKED: USER    (1) Final Intermolecular Energy     =   -4.68 kcal/mol
DOCKED: USER        vdW + Hbond + desolv Energy     =   -4.16 kcal/mol
DOCKED: USER        Electrostatic Energy            =   -0.52 kcal/mol
DOCKED: USER    (2) Final Total Internal Energy     =  -14.27 kcal/mol
DOCKED: USER    (3) Torsional Free Energy           =   +7.16 kcal/mol
DOCKED: USER    (4) Unbound System's Energy  [=(2)] =  -14.27 kcal/mol
DOCKED: USER    
DOCKED: USER    
DOCKED: USER    NEWDPF move IHP_ideal_opt.pdbqt
DOCKED: USER    NEWDPF about 0.035000 0.082000 -0.065000
DOCKED: USER    NEWDPF tran0 -12.766581 6.599260 15.981975
DOCKED: USER    NEWDPF quaternion0 -0.513511 0.314162 -0.564384 -0.564871
DOCKED: USER    NEWDPF axisangle0 -0.622302 0.380720 -0.683954 -111.213334
DOCKED: USER    NEWDPF quat0 -0.622302 0.380720 -0.683954 -111.213334
DOCKED: USER    NEWDPF dihe0 78.04 -47.72 147.08 26.10 -180.00 179.92 -77.30 -72.60 -17.24 -33.43 170.09 148.90 162.78 -178.80 81.63 40.52 162.44 179.95 -148.84 -3.97 24.53 -14.85 -170.14 28.34 
DOCKED: USER  keepresnum = 1 
DOCKED: USER  
DOCKED: REMARK  24 active torsions:
DOCKED: REMARK  status: ('A' for Active; 'I' for Inactive)
DOCKED: REMARK    1  A    between atoms: C_1  and  O_7 
DOCKED: REMARK    2  A    between atoms: C_2  and  O_12 
DOCKED: REMARK    3  A    between atoms: C_3  and  O_17 
DOCKED: REMARK    4  A    between atoms: C_4  and  O_22 
DOCKED: REMARK    5  A    between atoms: C_5  and  O_27 
DOCKED: REMARK    6  A    between atoms: C_6  and  O_32 
DOCKED: REMARK    7  A    between atoms: O_7  and  P_8 
DOCKED: REMARK    8  A    between atoms: P_8  and  O_10 
DOCKED: REMARK    9  A    between atoms: P_8  and  O_11 
DOCKED: REMARK   10  A    between atoms: O_12  and  P_13 
DOCKED: REMARK   11  A    between atoms: P_13  and  O_15 
DOCKED: REMARK   12  A    between atoms: P_13  and  O_16 
DOCKED: REMARK   13  A    between atoms: O_17  and  P_18 
DOCKED: REMARK   14  A    between atoms: P_18  and  O_20 
DOCKED: REMARK   15  A    between atoms: P_18  and  O_21 
DOCKED: REMARK   16  A    between atoms: O_22  and  P_23 
DOCKED: REMARK   17  A    between atoms: P_23  and  O_25 
DOCKED: REMARK   18  A    between atoms: P_23  and  O_26 
DOCKED: REMARK   19  A    between atoms: O_27  and  P_28 
DOCKED: REMARK   20  A    between atoms: P_28  and  O_30 
DOCKED: REMARK   21  A    between atoms: P_28  and  O_31 
DOCKED: REMARK   22  A    between atoms: O_32  and  P_33 
DOCKED: REMARK   23  A    between atoms: P_33  and  O_35 
DOCKED: REMARK   24  A    between atoms: P_33  and  O_36 
DOCKED: USER                              x       y       z     vdW  Elec       q    Type
DOCKED: USER                           _______ _______ _______ _____ _____    ______ ____
DOCKED: ROOT
DOCKED: ATOM      1  C   UNL d   1     -12.100   5.720  17.311 -0.04 +0.03    +0.194 C 
DOCKED: ATOM      2  C   UNL d   1     -12.904   6.968  17.681 -0.01 +0.03    +0.194 C 
DOCKED: ATOM      3  C   UNL d   1     -12.579   8.145  16.760 -0.02 +0.05    +0.194 C 
DOCKED: ATOM      4  C   UNL d   1     -12.698   7.800  15.277 -0.09 +0.10    +0.194 C 
DOCKED: ATOM      5  C   UNL d   1     -12.006   6.501  14.885 -0.11 +0.11    +0.194 C 
DOCKED: ATOM      6  C   UNL d   1     -12.282   5.339  15.842 -0.10 +0.06    +0.194 C 
DOCKED: ENDROOT
DOCKED: BRANCH   1   7
DOCKED: ATOM      7  O   UNL d   1     -12.583   4.629  18.098 -0.02 -0.02    -0.278 OA
DOCKED: BRANCH   7   8
DOCKED: ATOM      8  P   UNL d   1     -13.798   3.762  17.529 -0.00 +0.05    +0.473 P 
DOCKED: ATOM      9  O   UNL d   1     -14.742   3.248  18.558 -0.01 -0.01    -0.228 OA
DOCKED: BRANCH   8  10
DOCKED: ATOM     10  O   UNL d   1     -14.494   4.725  16.464 -0.01 -0.06    -0.303 OA
DOCKED: ATOM     11  H   UNL d   1     -15.065   5.366  16.927 +0.02 +0.04    +0.222 HD
DOCKED: ENDBRANCH   8  10
DOCKED: BRANCH   8  12
DOCKED: ATOM     12  O   UNL d   1     -13.124   2.667  16.596 -0.09 -0.02    -0.303 OA
DOCKED: ATOM     13  H   UNL d   1     -13.069   2.944  15.654 +0.08 +0.03    +0.222 HD
DOCKED: ENDBRANCH   8  12
DOCKED: ENDBRANCH   7   8
DOCKED: ENDBRANCH   1   7
DOCKED: BRANCH   2  14
DOCKED: ATOM     14  O   UNL d   1     -14.302   6.672  17.568 -0.00 -0.04    -0.278 OA
DOCKED: BRANCH  14  15
DOCKED: ATOM     15  P   UNL d   1     -15.210   7.008  18.843 +0.00 +0.04    +0.473 P 
DOCKED: ATOM     16  O   UNL d   1     -15.999   5.877  19.423 -0.00 -0.01    -0.228 OA
DOCKED: BRANCH  15  17
DOCKED: ATOM     17  O   UNL d   1     -14.191   7.649  19.887 +0.00 -0.02    -0.303 OA
DOCKED: ATOM     18  H   UNL d   1     -13.675   8.370  19.477 +0.00 +0.02    +0.222 HD
DOCKED: ENDBRANCH  15  17
DOCKED: BRANCH  15  19
DOCKED: ATOM     19  O   UNL d   1     -16.058   8.280  18.403 +0.00 -0.03    -0.303 OA
DOCKED: ATOM     20  H   UNL d   1     -15.551   8.862  17.806 +0.00 +0.03    +0.222 HD
DOCKED: ENDBRANCH  15  19
DOCKED: ENDBRANCH  14  15
DOCKED: ENDBRANCH   2  14
DOCKED: BRANCH   6  21
DOCKED: ATOM     21  O   UNL d   1     -11.321   4.327  15.550 -0.19 -0.05    -0.278 OA
DOCKED: BRANCH  21  22
DOCKED: ATOM     22  P   UNL d   1     -11.519   3.391  14.274 -0.27 +0.17    +0.473 P 
DOCKED: ATOM     23  O   UNL d   1     -10.564   3.536  13.137 -0.85 -0.18    -0.228 OA
DOCKED: BRANCH  22  24
DOCKED: ATOM     24  O   UNL d   1     -11.555   1.943  14.935 +0.01 -0.02    -0.303 OA
DOCKED: ATOM     25  H   UNL d   1     -12.463   1.568  14.806 -0.46 -0.03    +0.222 HD
DOCKED: ENDBRANCH  22  24
DOCKED: BRANCH  22  26
DOCKED: ATOM     26  O   UNL d   1     -13.066   3.635  13.928 -0.14 -0.15    -0.303 OA
DOCKED: ATOM     27  H   UNL d   1     -13.419   4.336  14.513 +0.08 +0.10    +0.222 HD
DOCKED: ENDBRANCH  22  26
DOCKED: ENDBRANCH  21  22
DOCKED: ENDBRANCH   6  21
DOCKED: BRANCH   3  28
DOCKED: ATOM     28  O   UNL d   1     -13.555   9.153  16.992 -0.00 -0.06    -0.278 OA
DOCKED: BRANCH  28  29
DOCKED: ATOM     29  P   UNL d   1     -13.254  10.347  18.002 +0.01 +0.06    +0.473 P 
DOCKED: ATOM     30  O   UNL d   1     -11.830  10.513  18.392 -0.00 -0.02    -0.228 OA
DOCKED: BRANCH  29  31
DOCKED: ATOM     31  O   UNL d   1     -13.937  11.560  17.212 +0.00 -0.04    -0.303 OA
DOCKED: ATOM     32  H   UNL d   1     -13.947  11.343  16.252 +0.01 +0.04    +0.222 HD
DOCKED: ENDBRANCH  29  31
DOCKED: BRANCH  29  33
DOCKED: ATOM     33  O   UNL d   1     -14.293  10.062  19.175 +0.00 -0.02    -0.303 OA
DOCKED: ATOM     34  H   UNL d   1     -14.954   9.396  18.863 +0.00 +0.02    +0.222 HD
DOCKED: ENDBRANCH  29  33
DOCKED: ENDBRANCH  28  29
DOCKED: ENDBRANCH   3  28
DOCKED: BRANCH   5  35
DOCKED: ATOM     35  O   UNL d   1     -12.550   6.140  13.618 +0.01 -0.27    -0.278 OA
DOCKED: BRANCH  35  36
DOCKED: ATOM     36  P   UNL d   1     -14.104   6.343  13.322 -0.06 +0.45    +0.473 P 
DOCKED: ATOM     37  O   UNL d   1     -14.692   5.422  12.301 -0.13 -0.23    -0.228 OA
DOCKED: BRANCH  36  38
DOCKED: ATOM     38  O   UNL d   1     -14.735   6.197  14.776 -0.02 -0.13    -0.303 OA
DOCKED: ATOM     39  H   UNL d   1     -14.917   5.249  14.954 +0.04 +0.08    +0.222 HD
DOCKED: ENDBRANCH  36  38
DOCKED: BRANCH  36  40
DOCKED: ATOM     40  O   UNL d   1     -14.191   7.903  13.021 -0.67 -0.49    -0.303 OA
DOCKED: ATOM     41  H   UNL d   1     -14.122   8.436  13.844 +0.03 +0.23    +0.222 HD
DOCKED: ENDBRANCH  36  40
DOCKED: ENDBRANCH  35  36
DOCKED: ENDBRANCH   5  35
DOCKED: BRANCH   4  42
DOCKED: ATOM     42  O   UNL d   1     -12.055   8.854  14.553 -0.16 -0.22    -0.278 OA
DOCKED: BRANCH  42  43
DOCKED: ATOM     43  P   UNL d   1     -12.872  10.191  14.250 -0.11 +0.38    +0.473 P 
DOCKED: ATOM     44  O   UNL d   1     -12.796  10.744  12.869 -0.86 -0.36    -0.228 OA
DOCKED: BRANCH  43  45
DOCKED: ATOM     45  O   UNL d   1     -14.345   9.814  14.720 -0.03 -0.16    -0.303 OA
DOCKED: ATOM     46  H   UNL d   1     -14.523  10.134  15.627 +0.02 +0.07    +0.222 HD
DOCKED: ENDBRANCH  43  45
DOCKED: BRANCH  43  47
DOCKED: ATOM     47  O   UNL d   1     -12.400  11.181  15.419 -0.06 -0.10    -0.303 OA
DOCKED: ATOM     48  H   UNL d   1     -12.207  10.659  16.226 +0.03 +0.06    +0.222 HD
DOCKED: ENDBRANCH  43  47
DOCKED: ENDBRANCH  42  43
DOCKED: ENDBRANCH   4  42
DOCKED: TORSDOF 24
DOCKED: TER
DOCKED: ENDMDL
________________________________________________________________________________


	BEGINNING GENETIC ALGORITHM DOCKING 80 of 100
Run: 80 Seed: 485070964 2126651708 [ Run 80 of 100 GA/GALS ]
Beginning LAMARCKIAN GENETIC ALGORITHM (LGA), with a maximum of 25000000 energy evaluations.

Final-Value: -18.640


	FINAL GENETIC ALGORITHM DOCKED STATE
	_______________________________________________


Detailed state:  trans -2.858 -11.936 -14.145 quatxyzw 0.278392 -0.070786 0.917703 -0.274425 center 0.035 0.082 -0.065 ntor 24 179.9501 -27.8373 64.7301 92.5627 18.2969 128.6207 -46.5329 -19.0440 -41.0971 54.7808 13.5508 -113.9345 48.1819 -75.0565 -174.2828 -180.0000 -139.5891 -22.8038 -144.5004 -17.0152 19.0476 -23.0467 -60.7961 141.0002
State:	 -2.858 -11.936 -14.145   0.290 -0.074  0.954 -148.144    179.95  -27.84   64.73   92.56   18.30  128.62  -46.53  -19.04  -41.10   54.78   13.55 -113.93   48.18  -75.06 -174.28 -180.00 -139.59  -22.80 -144.50  -17.02   19.05  -23.05  -60.80  141.00

DOCKED: MODEL       80
DOCKED: USER    Run = 80
DOCKED: USER    DPF = D:/Protein_go_brrr/autodock/final/mut_Y35F/IHP/dock.dpf
DOCKED: USER  
DOCKED: USER    Estimated Free Energy of Binding    =   +3.25 kcal/mol  [=(1)+(2)+(3)-(4)]
DOCKED: USER    
DOCKED: USER    (1) Final Intermolecular Energy     =   -3.91 kcal/mol
DOCKED: USER        vdW + Hbond + desolv Energy     =   -3.93 kcal/mol
DOCKED: USER        Electrostatic Energy            =   +0.01 kcal/mol
DOCKED: USER    (2) Final Total Internal Energy     =  -14.73 kcal/mol
DOCKED: USER    (3) Torsional Free Energy           =   +7.16 kcal/mol
DOCKED: USER    (4) Unbound System's Energy  [=(2)] =  -14.73 kcal/mol
DOCKED: USER    
DOCKED: USER    
DOCKED: USER    NEWDPF move IHP_ideal_opt.pdbqt
DOCKED: USER    NEWDPF about 0.035000 0.082000 -0.065000
DOCKED: USER    NEWDPF tran0 -2.858265 -11.936075 -14.144762
DOCKED: USER    NEWDPF quaternion0 0.278392 -0.070786 0.917703 -0.274425
DOCKED: USER    NEWDPF axisangle0 0.289506 -0.073612 0.954341 -148.144484
DOCKED: USER    NEWDPF quat0 0.289506 -0.073612 0.954341 -148.144484
DOCKED: USER    NEWDPF dihe0 179.95 -27.84 64.73 92.56 18.30 128.62 -46.53 -19.04 -41.10 54.78 13.55 -113.93 48.18 -75.06 -174.28 -180.00 -139.59 -22.80 -144.50 -17.02 19.05 -23.05 -60.80 141.00 
DOCKED: USER  keepresnum = 1 
DOCKED: USER  
DOCKED: REMARK  24 active torsions:
DOCKED: REMARK  status: ('A' for Active; 'I' for Inactive)
DOCKED: REMARK    1  A    between atoms: C_1  and  O_7 
DOCKED: REMARK    2  A    between atoms: C_2  and  O_12 
DOCKED: REMARK    3  A    between atoms: C_3  and  O_17 
DOCKED: REMARK    4  A    between atoms: C_4  and  O_22 
DOCKED: REMARK    5  A    between atoms: C_5  and  O_27 
DOCKED: REMARK    6  A    between atoms: C_6  and  O_32 
DOCKED: REMARK    7  A    between atoms: O_7  and  P_8 
DOCKED: REMARK    8  A    between atoms: P_8  and  O_10 
DOCKED: REMARK    9  A    between atoms: P_8  and  O_11 
DOCKED: REMARK   10  A    between atoms: O_12  and  P_13 
DOCKED: REMARK   11  A    between atoms: P_13  and  O_15 
DOCKED: REMARK   12  A    between atoms: P_13  and  O_16 
DOCKED: REMARK   13  A    between atoms: O_17  and  P_18 
DOCKED: REMARK   14  A    between atoms: P_18  and  O_20 
DOCKED: REMARK   15  A    between atoms: P_18  and  O_21 
DOCKED: REMARK   16  A    between atoms: O_22  and  P_23 
DOCKED: REMARK   17  A    between atoms: P_23  and  O_25 
DOCKED: REMARK   18  A    between atoms: P_23  and  O_26 
DOCKED: REMARK   19  A    between atoms: O_27  and  P_28 
DOCKED: REMARK   20  A    between atoms: P_28  and  O_30 
DOCKED: REMARK   21  A    between atoms: P_28  and  O_31 
DOCKED: REMARK   22  A    between atoms: O_32  and  P_33 
DOCKED: REMARK   23  A    between atoms: P_33  and  O_35 
DOCKED: REMARK   24  A    between atoms: P_33  and  O_36 
DOCKED: USER                              x       y       z     vdW  Elec       q    Type
DOCKED: USER                           _______ _______ _______ _____ _____    ______ ____
DOCKED: ROOT
DOCKED: ATOM      1  C   UNL d   1      -2.873 -10.833 -12.816 -0.15 -0.03    +0.194 C 
DOCKED: ATOM      2  C   UNL d   1      -1.744 -10.633 -13.828 -0.18 -0.01    +0.194 C 
DOCKED: ATOM      3  C   UNL d   1      -1.121 -11.965 -14.253 -0.16 -0.01    +0.194 C 
DOCKED: ATOM      4  C   UNL d   1      -2.151 -12.985 -14.731 -0.09 +0.00    +0.194 C 
DOCKED: ATOM      5  C   UNL d   1      -3.353 -13.133 -13.807 -0.17 +0.00    +0.194 C 
DOCKED: ATOM      6  C   UNL d   1      -3.938 -11.800 -13.333 -0.19 -0.01    +0.194 C 
DOCKED: ENDROOT
DOCKED: BRANCH   1   7
DOCKED: ATOM      7  O   UNL d   1      -3.510  -9.571 -12.604 -0.14 +0.01    -0.278 OA
DOCKED: BRANCH   7   8
DOCKED: ATOM      8  P   UNL d   1      -4.786  -9.206 -13.493 -0.03 -0.02    +0.473 P 
DOCKED: ATOM      9  O   UNL d   1      -6.100  -9.414 -12.826 -0.10 +0.02    -0.228 OA
DOCKED: BRANCH   8  10
DOCKED: ATOM     10  O   UNL d   1      -4.535  -7.692 -13.928 -0.03 +0.00    -0.303 OA
DOCKED: ATOM     11  H   UNL d   1      -3.583  -7.489 -13.870 +0.06 -0.00    +0.222 HD
DOCKED: ENDBRANCH   8  10
DOCKED: BRANCH   8  12
DOCKED: ATOM     12  O   UNL d   1      -4.573  -9.986 -14.861 -0.01 +0.01    -0.303 OA
DOCKED: ATOM     13  H   UNL d   1      -3.872  -9.588 -15.426 +0.02 -0.00    +0.222 HD
DOCKED: ENDBRANCH   8  12
DOCKED: ENDBRANCH   7   8
DOCKED: ENDBRANCH   1   7
DOCKED: BRANCH   2  14
DOCKED: ATOM     14  O   UNL d   1      -2.270  -9.983 -14.992 -0.03 +0.00    -0.278 OA
DOCKED: BRANCH  14  15
DOCKED: ATOM     15  P   UNL d   1      -1.725  -8.509 -15.297 -0.00 +0.01    +0.473 P 
DOCKED: ATOM     16  O   UNL d   1      -1.096  -7.775 -14.154 -0.09 -0.01    -0.228 OA
DOCKED: BRANCH  15  17
DOCKED: ATOM     17  O   UNL d   1      -0.730  -8.709 -16.524 -0.00 -0.01    -0.303 OA
DOCKED: ATOM     18  H   UNL d   1      -0.306  -9.588 -16.494 +0.03 +0.01    +0.222 HD
DOCKED: ENDBRANCH  15  17
DOCKED: BRANCH  15  19
DOCKED: ATOM     19  O   UNL d   1      -2.949  -7.770 -15.996 -0.00 -0.00    -0.303 OA
DOCKED: ATOM     20  H   UNL d   1      -3.805  -8.086 -15.651 +0.02 -0.00    +0.222 HD
DOCKED: ENDBRANCH  15  19
DOCKED: ENDBRANCH  14  15
DOCKED: ENDBRANCH   2  14
DOCKED: BRANCH   6  21
DOCKED: ATOM     21  O   UNL d   1      -4.802 -12.096 -12.238 -0.25 +0.05    -0.278 OA
DOCKED: BRANCH  21  22
DOCKED: ATOM     22  P   UNL d   1      -6.300 -12.568 -12.516 -0.17 -0.08    +0.473 P 
DOCKED: ATOM     23  O   UNL d   1      -7.367 -12.117 -11.577 -0.25 +0.07    -0.228 OA
DOCKED: BRANCH  22  24
DOCKED: ATOM     24  O   UNL d   1      -6.507 -12.119 -14.028 -0.04 +0.01    -0.303 OA
DOCKED: ATOM     25  H   UNL d   1      -6.194 -11.183 -14.118 +0.06 -0.01    +0.222 HD
DOCKED: ENDBRANCH  22  24
DOCKED: BRANCH  22  26
DOCKED: ATOM     26  O   UNL d   1      -6.118 -14.154 -12.664 -0.23 +0.03    -0.303 OA
DOCKED: ATOM     27  H   UNL d   1      -5.347 -14.338 -13.238 +0.07 +0.00    +0.222 HD
DOCKED: ENDBRANCH  22  26
DOCKED: ENDBRANCH  21  22
DOCKED: ENDBRANCH   6  21
DOCKED: BRANCH   3  28
DOCKED: ATOM     28  O   UNL d   1      -0.292 -11.710 -15.379 -0.05 -0.00    -0.278 OA
DOCKED: BRANCH  28  29
DOCKED: ATOM     29  P   UNL d   1       1.228 -11.278 -15.178 -0.05 +0.03    +0.473 P 
DOCKED: ATOM     30  O   UNL d   1       2.142 -11.610 -16.301 -0.08 -0.00    -0.228 OA
DOCKED: BRANCH  29  31
DOCKED: ATOM     31  O   UNL d   1       1.035  -9.728 -14.832 -0.63 -0.05    -0.303 OA
DOCKED: ATOM     32  H   UNL d   1       0.070  -9.539 -14.768 +0.06 +0.02    +0.222 HD
DOCKED: ENDBRANCH  29  31
DOCKED: BRANCH  29  33
DOCKED: ATOM     33  O   UNL d   1       1.571 -11.915 -13.759 -0.32 +0.01    -0.303 OA
DOCKED: ATOM     34  H   UNL d   1       1.154 -12.809 -13.699 +0.04 -0.03    +0.222 HD
DOCKED: ENDBRANCH  29  33
DOCKED: ENDBRANCH  28  29
DOCKED: ENDBRANCH   3  28
DOCKED: BRANCH   5  35
DOCKED: ATOM     35  O   UNL d   1      -4.360 -13.781 -14.582 -0.10 -0.02    -0.278 OA
DOCKED: BRANCH  35  36
DOCKED: ATOM     36  P   UNL d   1      -4.191 -15.310 -15.002 -0.13 +0.10    +0.473 P 
DOCKED: ATOM     37  O   UNL d   1      -3.607 -15.546 -16.358 -0.06 -0.05    -0.228 OA
DOCKED: BRANCH  36  38
DOCKED: ATOM     38  O   UNL d   1      -3.314 -15.883 -13.803 -0.20 -0.09    -0.303 OA
DOCKED: ATOM     39  H   UNL d   1      -2.418 -16.103 -14.137 +0.05 +0.06    +0.222 HD
DOCKED: ENDBRANCH  36  38
DOCKED: BRANCH  36  40
DOCKED: ATOM     40  O   UNL d   1      -5.643 -15.900 -14.730 -0.14 -0.09    -0.303 OA
DOCKED: ATOM     41  H   UNL d   1      -6.305 -15.187 -14.588 +0.06 +0.04    +0.222 HD
DOCKED: ENDBRANCH  36  40
DOCKED: ENDBRANCH  35  36
DOCKED: ENDBRANCH   5  35
DOCKED: BRANCH   4  42
DOCKED: ATOM     42  O   UNL d   1      -1.491 -14.254 -14.769 -0.07 -0.02    -0.278 OA
DOCKED: BRANCH  42  43
DOCKED: ATOM     43  P   UNL d   1      -0.301 -14.536 -13.744 -0.07 +0.01    +0.473 P 
DOCKED: ATOM     44  O   UNL d   1      -0.268 -13.729 -12.492 -0.16 +0.03    -0.228 OA
DOCKED: BRANCH  43  45
DOCKED: ATOM     45  O   UNL d   1      -0.412 -16.105 -13.503 -0.10 -0.03    -0.303 OA
DOCKED: ATOM     46  H   UNL d   1      -1.285 -16.350 -13.137 +0.07 +0.06    +0.222 HD
DOCKED: ENDBRANCH  43  45
DOCKED: BRANCH  43  47
DOCKED: ATOM     47  O   UNL d   1       1.007 -14.439 -14.665 -0.03 +0.01    -0.303 OA
DOCKED: ATOM     48  H   UNL d   1       1.100 -13.523 -14.998 +0.05 -0.01    +0.222 HD
DOCKED: ENDBRANCH  43  47
DOCKED: ENDBRANCH  42  43
DOCKED: ENDBRANCH   4  42
DOCKED: TORSDOF 24
DOCKED: TER
DOCKED: ENDMDL
________________________________________________________________________________


	BEGINNING GENETIC ALGORITHM DOCKING 81 of 100
Run: 81 Seed: 968833812 1021443046 [ Run 81 of 100 GA/GALS ]
Beginning LAMARCKIAN GENETIC ALGORITHM (LGA), with a maximum of 25000000 energy evaluations.

Final-Value: -17.560


	FINAL GENETIC ALGORITHM DOCKED STATE
	_______________________________________________


Detailed state:  trans 5.676 -18.682 5.118 quatxyzw -0.847797 0.180312 -0.343449 -0.361622 center 0.035 0.082 -0.065 ntor 24 78.8717 107.5135 137.5538 12.2561 90.4273 -119.2714 -156.3374 -21.0840 114.4307 106.3063 -178.4936 -123.1427 -76.6114 34.3058 67.9280 22.5387 38.5787 -13.1116 -147.6105 -22.5264 23.0524 -17.6355 -169.3322 154.7691
State:	  5.676 -18.682   5.118  -0.909  0.193 -0.368 -137.600     78.87  107.51  137.55   12.26   90.43 -119.27 -156.34  -21.08  114.43  106.31 -178.49 -123.14  -76.61   34.31   67.93   22.54   38.58  -13.11 -147.61  -22.53   23.05  -17.64 -169.33  154.77

DOCKED: MODEL       81
DOCKED: USER    Run = 81
DOCKED: USER    DPF = D:/Protein_go_brrr/autodock/final/mut_Y35F/IHP/dock.dpf
DOCKED: USER  
DOCKED: USER    Estimated Free Energy of Binding    =   +4.47 kcal/mol  [=(1)+(2)+(3)-(4)]
DOCKED: USER    
DOCKED: USER    (1) Final Intermolecular Energy     =   -2.69 kcal/mol
DOCKED: USER        vdW + Hbond + desolv Energy     =   -2.55 kcal/mol
DOCKED: USER        Electrostatic Energy            =   -0.14 kcal/mol
DOCKED: USER    (2) Final Total Internal Energy     =  -14.87 kcal/mol
DOCKED: USER    (3) Torsional Free Energy           =   +7.16 kcal/mol
DOCKED: USER    (4) Unbound System's Energy  [=(2)] =  -14.87 kcal/mol
DOCKED: USER    
DOCKED: USER    
DOCKED: USER    NEWDPF move IHP_ideal_opt.pdbqt
DOCKED: USER    NEWDPF about 0.035000 0.082000 -0.065000
DOCKED: USER    NEWDPF tran0 5.676207 -18.682306 5.117686
DOCKED: USER    NEWDPF quaternion0 -0.847797 0.180312 -0.343449 -0.361622
DOCKED: USER    NEWDPF axisangle0 -0.909337 0.193400 -0.368379 -137.600298
DOCKED: USER    NEWDPF quat0 -0.909337 0.193400 -0.368379 -137.600298
DOCKED: USER    NEWDPF dihe0 78.87 107.51 137.55 12.26 90.43 -119.27 -156.34 -21.08 114.43 106.31 -178.49 -123.14 -76.61 34.31 67.93 22.54 38.58 -13.11 -147.61 -22.53 23.05 -17.64 -169.33 154.77 
DOCKED: USER  keepresnum = 1 
DOCKED: USER  
DOCKED: REMARK  24 active torsions:
DOCKED: REMARK  status: ('A' for Active; 'I' for Inactive)
DOCKED: REMARK    1  A    between atoms: C_1  and  O_7 
DOCKED: REMARK    2  A    between atoms: C_2  and  O_12 
DOCKED: REMARK    3  A    between atoms: C_3  and  O_17 
DOCKED: REMARK    4  A    between atoms: C_4  and  O_22 
DOCKED: REMARK    5  A    between atoms: C_5  and  O_27 
DOCKED: REMARK    6  A    between atoms: C_6  and  O_32 
DOCKED: REMARK    7  A    between atoms: O_7  and  P_8 
DOCKED: REMARK    8  A    between atoms: P_8  and  O_10 
DOCKED: REMARK    9  A    between atoms: P_8  and  O_11 
DOCKED: REMARK   10  A    between atoms: O_12  and  P_13 
DOCKED: REMARK   11  A    between atoms: P_13  and  O_15 
DOCKED: REMARK   12  A    between atoms: P_13  and  O_16 
DOCKED: REMARK   13  A    between atoms: O_17  and  P_18 
DOCKED: REMARK   14  A    between atoms: P_18  and  O_20 
DOCKED: REMARK   15  A    between atoms: P_18  and  O_21 
DOCKED: REMARK   16  A    between atoms: O_22  and  P_23 
DOCKED: REMARK   17  A    between atoms: P_23  and  O_25 
DOCKED: REMARK   18  A    between atoms: P_23  and  O_26 
DOCKED: REMARK   19  A    between atoms: O_27  and  P_28 
DOCKED: REMARK   20  A    between atoms: P_28  and  O_30 
DOCKED: REMARK   21  A    between atoms: P_28  and  O_31 
DOCKED: REMARK   22  A    between atoms: O_32  and  P_33 
DOCKED: REMARK   23  A    between atoms: P_33  and  O_35 
DOCKED: REMARK   24  A    between atoms: P_33  and  O_36 
DOCKED: USER                              x       y       z     vdW  Elec       q    Type
DOCKED: USER                           _______ _______ _______ _____ _____    ______ ____
DOCKED: ROOT
DOCKED: ATOM      1  C   UNL d   1       7.167 -18.392   5.941 -0.00 -0.02    +0.194 C 
DOCKED: ATOM      2  C   UNL d   1       6.078 -17.339   6.155 -0.02 -0.02    +0.194 C 
DOCKED: ATOM      3  C   UNL d   1       5.361 -16.992   4.848 -0.09 -0.04    +0.194 C 
DOCKED: ATOM      4  C   UNL d   1       4.840 -18.218   4.103 -0.10 -0.04    +0.194 C 
DOCKED: ATOM      5  C   UNL d   1       5.860 -19.341   3.967 -0.02 -0.02    +0.194 C 
DOCKED: ATOM      6  C   UNL d   1       6.621 -19.647   5.259 -0.00 -0.02    +0.194 C 
DOCKED: ENDROOT
DOCKED: BRANCH   1   7
DOCKED: ATOM      7  O   UNL d   1       7.665 -18.785   7.222 -0.00 +0.02    -0.278 OA
DOCKED: BRANCH   7   8
DOCKED: ATOM      8  P   UNL d   1       6.958 -20.007   7.969 +0.00 -0.03    +0.473 P 
DOCKED: ATOM      9  O   UNL d   1       5.543 -20.251   7.579 -0.00 +0.01    -0.228 OA
DOCKED: BRANCH   8  10
DOCKED: ATOM     10  O   UNL d   1       7.915 -21.248   7.670 +0.00 +0.01    -0.303 OA
DOCKED: ATOM     11  H   UNL d   1       7.746 -21.582   6.769 +0.00 -0.01    +0.222 HD
DOCKED: ENDBRANCH   8  10
DOCKED: BRANCH   8  12
DOCKED: ATOM     12  O   UNL d   1       7.218 -19.752   9.515 -0.00 +0.01    -0.303 OA
DOCKED: ATOM     13  H   UNL d   1       6.812 -18.918   9.842 +0.00 -0.01    +0.222 HD
DOCKED: ENDBRANCH   8  12
DOCKED: ENDBRANCH   7   8
DOCKED: ENDBRANCH   1   7
DOCKED: BRANCH   2  14
DOCKED: ATOM     14  O   UNL d   1       5.112 -17.848   7.083 -0.01 +0.03    -0.278 OA
DOCKED: BRANCH  14  15
DOCKED: ATOM     15  P   UNL d   1       5.096 -17.179   8.538 -0.00 -0.04    +0.473 P 
DOCKED: ATOM     16  O   UNL d   1       4.205 -15.991   8.721 -0.01 +0.02    -0.228 OA
DOCKED: BRANCH  15  17
DOCKED: ATOM     17  O   UNL d   1       4.727 -18.383   9.514 -0.00 +0.02    -0.303 OA
DOCKED: ATOM     18  H   UNL d   1       5.203 -19.198   9.263 +0.00 -0.01    +0.222 HD
DOCKED: ENDBRANCH  15  17
DOCKED: BRANCH  15  19
DOCKED: ATOM     19  O   UNL d   1       6.631 -16.946   8.885 -0.00 +0.02    -0.303 OA
DOCKED: ATOM     20  H   UNL d   1       7.166 -17.740   8.702 +0.00 -0.01    +0.222 HD
DOCKED: ENDBRANCH  15  19
DOCKED: ENDBRANCH  14  15
DOCKED: ENDBRANCH   2  14
DOCKED: BRANCH   6  21
DOCKED: ATOM     21  O   UNL d   1       7.743 -20.448   4.897 -0.00 +0.02    -0.278 OA
DOCKED: BRANCH  21  22
DOCKED: ATOM     22  P   UNL d   1       7.548 -22.008   4.623 -0.00 -0.02    +0.473 P 
DOCKED: ATOM     23  O   UNL d   1       7.415 -22.463   3.209 -0.00 +0.01    -0.228 OA
DOCKED: BRANCH  22  24
DOCKED: ATOM     24  O   UNL d   1       8.779 -22.634   5.413 +0.00 +0.01    -0.303 OA
DOCKED: ATOM     25  H   UNL d   1       9.045 -21.997   6.125 +0.00 -0.01    +0.222 HD
DOCKED: ENDBRANCH  22  24
DOCKED: BRANCH  22  26
DOCKED: ATOM     26  O   UNL d   1       6.320 -22.357   5.593 -0.00 +0.01    -0.303 OA
DOCKED: ATOM     27  H   UNL d   1       5.516 -21.899   5.272 +0.00 -0.01    +0.222 HD
DOCKED: ENDBRANCH  22  26
DOCKED: ENDBRANCH  21  22
DOCKED: ENDBRANCH   6  21
DOCKED: BRANCH   3  28
DOCKED: ATOM     28  O   UNL d   1       4.205 -16.234   5.182 -0.14 +0.09    -0.278 OA
DOCKED: BRANCH  28  29
DOCKED: ATOM     29  P   UNL d   1       4.266 -14.643   5.208 -0.17 -0.16    +0.473 P 
DOCKED: ATOM     30  O   UNL d   1       5.602 -14.048   4.944 -0.18 +0.07    -0.228 OA
DOCKED: BRANCH  29  31
DOCKED: ATOM     31  O   UNL d   1       3.101 -14.302   4.166 -0.28 +0.17    -0.303 OA
DOCKED: ATOM     32  H   UNL d   1       3.512 -14.015   3.318 -0.25 -0.19    +0.222 HD
DOCKED: ENDBRANCH  29  31
DOCKED: BRANCH  29  33
DOCKED: ATOM     33  O   UNL d   1       3.592 -14.305   6.611 -0.10 +0.07    -0.303 OA
DOCKED: ATOM     34  H   UNL d   1       3.877 -14.981   7.274 +0.05 -0.04    +0.222 HD
DOCKED: ENDBRANCH  29  33
DOCKED: ENDBRANCH  28  29
DOCKED: ENDBRANCH   3  28
DOCKED: BRANCH   5  35
DOCKED: ATOM     35  O   UNL d   1       5.110 -20.508   3.636 -0.01 +0.02    -0.278 OA
DOCKED: BRANCH  35  36
DOCKED: ATOM     36  P   UNL d   1       3.692 -20.772   4.316 -0.02 -0.04    +0.473 P 
DOCKED: ATOM     37  O   UNL d   1       2.532 -20.070   3.684 -0.10 +0.02    -0.228 OA
DOCKED: BRANCH  36  38
DOCKED: ATOM     38  O   UNL d   1       3.599 -22.361   4.269 -0.00 +0.01    -0.303 OA
DOCKED: ATOM     39  H   UNL d   1       4.460 -22.742   4.548 +0.00 -0.01    +0.222 HD
DOCKED: ENDBRANCH  36  38
DOCKED: BRANCH  36  40
DOCKED: ATOM     40  O   UNL d   1       3.983 -20.451   5.846 -0.01 +0.03    -0.303 OA
DOCKED: ATOM     41  H   UNL d   1       4.214 -19.505   5.982 +0.02 -0.03    +0.222 HD
DOCKED: ENDBRANCH  36  40
DOCKED: ENDBRANCH  35  36
DOCKED: ENDBRANCH   5  35
DOCKED: BRANCH   4  42
DOCKED: ATOM     42  O   UNL d   1       4.508 -17.789   2.779 -0.18 +0.06    -0.278 OA
DOCKED: BRANCH  42  43
DOCKED: ATOM     43  P   UNL d   1       5.514 -16.821   2.006 -0.18 -0.12    +0.473 P 
DOCKED: ATOM     44  O   UNL d   1       6.969 -16.980   2.284 -0.08 +0.04    -0.228 OA
DOCKED: BRANCH  43  45
DOCKED: ATOM     45  O   UNL d   1       5.114 -17.046   0.483 -0.13 +0.10    -0.303 OA
DOCKED: ATOM     46  H   UNL d   1       4.652 -16.267   0.115 -0.35 -0.17    +0.222 HD
DOCKED: ENDBRANCH  43  45
DOCKED: BRANCH  43  47
DOCKED: ATOM     47  O   UNL d   1       4.911 -15.364   2.290 -0.24 +0.12    -0.303 OA
DOCKED: ATOM     48  H   UNL d   1       4.837 -15.227   3.257 +0.06 -0.09    +0.222 HD
DOCKED: ENDBRANCH  43  47
DOCKED: ENDBRANCH  42  43
DOCKED: ENDBRANCH   4  42
DOCKED: TORSDOF 24
DOCKED: TER
DOCKED: ENDMDL
________________________________________________________________________________


	BEGINNING GENETIC ALGORITHM DOCKING 82 of 100
Run: 82 Seed: 1537035602 986107526 [ Run 82 of 100 GA/GALS ]
Beginning LAMARCKIAN GENETIC ALGORITHM (LGA), with a maximum of 25000000 energy evaluations.

Final-Value: -19.166


	FINAL GENETIC ALGORITHM DOCKED STATE
	_______________________________________________


Detailed state:  trans 3.885 14.363 18.615 quatxyzw -0.171029 -0.065141 -0.069696 -0.980637 center 0.035 0.082 -0.065 ntor 24 119.6331 102.3139 -170.2597 50.5926 153.1578 -150.1126 -0.0086 -62.6080 -38.5580 38.8179 47.6629 172.8878 -71.8768 161.1627 61.0966 88.5546 -38.1585 172.7713 -150.1653 -15.8096 13.5768 -20.9514 172.6001 5.9603
State:	  3.885  14.363  18.615  -0.873 -0.333 -0.356 -22.587    119.63  102.31 -170.26   50.59  153.16 -150.11   -0.01  -62.61  -38.56   38.82   47.66  172.89  -71.88  161.16   61.10   88.55  -38.16  172.77 -150.17  -15.81   13.58  -20.95  172.60    5.96

DOCKED: MODEL       82
DOCKED: USER    Run = 82
DOCKED: USER    DPF = D:/Protein_go_brrr/autodock/final/mut_Y35F/IHP/dock.dpf
DOCKED: USER  
DOCKED: USER    Estimated Free Energy of Binding    =   +3.39 kcal/mol  [=(1)+(2)+(3)-(4)]
DOCKED: USER    
DOCKED: USER    (1) Final Intermolecular Energy     =   -3.77 kcal/mol
DOCKED: USER        vdW + Hbond + desolv Energy     =   -3.19 kcal/mol
DOCKED: USER        Electrostatic Energy            =   -0.57 kcal/mol
DOCKED: USER    (2) Final Total Internal Energy     =  -15.40 kcal/mol
DOCKED: USER    (3) Torsional Free Energy           =   +7.16 kcal/mol
DOCKED: USER    (4) Unbound System's Energy  [=(2)] =  -15.40 kcal/mol
DOCKED: USER    
DOCKED: USER    
DOCKED: USER    NEWDPF move IHP_ideal_opt.pdbqt
DOCKED: USER    NEWDPF about 0.035000 0.082000 -0.065000
DOCKED: USER    NEWDPF tran0 3.884526 14.362731 18.615405
DOCKED: USER    NEWDPF quaternion0 -0.171029 -0.065141 -0.069696 -0.980637
DOCKED: USER    NEWDPF axisangle0 -0.873326 -0.332631 -0.355891 -22.587194
DOCKED: USER    NEWDPF quat0 -0.873326 -0.332631 -0.355891 -22.587194
DOCKED: USER    NEWDPF dihe0 119.63 102.31 -170.26 50.59 153.16 -150.11 -0.01 -62.61 -38.56 38.82 47.66 172.89 -71.88 161.16 61.10 88.55 -38.16 172.77 -150.17 -15.81 13.58 -20.95 172.60 5.96 
DOCKED: USER  keepresnum = 1 
DOCKED: USER  
DOCKED: REMARK  24 active torsions:
DOCKED: REMARK  status: ('A' for Active; 'I' for Inactive)
DOCKED: REMARK    1  A    between atoms: C_1  and  O_7 
DOCKED: REMARK    2  A    between atoms: C_2  and  O_12 
DOCKED: REMARK    3  A    between atoms: C_3  and  O_17 
DOCKED: REMARK    4  A    between atoms: C_4  and  O_22 
DOCKED: REMARK    5  A    between atoms: C_5  and  O_27 
DOCKED: REMARK    6  A    between atoms: C_6  and  O_32 
DOCKED: REMARK    7  A    between atoms: O_7  and  P_8 
DOCKED: REMARK    8  A    between atoms: P_8  and  O_10 
DOCKED: REMARK    9  A    between atoms: P_8  and  O_11 
DOCKED: REMARK   10  A    between atoms: O_12  and  P_13 
DOCKED: REMARK   11  A    between atoms: P_13  and  O_15 
DOCKED: REMARK   12  A    between atoms: P_13  and  O_16 
DOCKED: REMARK   13  A    between atoms: O_17  and  P_18 
DOCKED: REMARK   14  A    between atoms: P_18  and  O_20 
DOCKED: REMARK   15  A    between atoms: P_18  and  O_21 
DOCKED: REMARK   16  A    between atoms: O_22  and  P_23 
DOCKED: REMARK   17  A    between atoms: P_23  and  O_25 
DOCKED: REMARK   18  A    between atoms: P_23  and  O_26 
DOCKED: REMARK   19  A    between atoms: O_27  and  P_28 
DOCKED: REMARK   20  A    between atoms: P_28  and  O_30 
DOCKED: REMARK   21  A    between atoms: P_28  and  O_31 
DOCKED: REMARK   22  A    between atoms: O_32  and  P_33 
DOCKED: REMARK   23  A    between atoms: P_33  and  O_35 
DOCKED: REMARK   24  A    between atoms: P_33  and  O_36 
DOCKED: USER                              x       y       z     vdW  Elec       q    Type
DOCKED: USER                           _______ _______ _______ _____ _____    ______ ____
DOCKED: ROOT
DOCKED: ATOM      1  C   UNL d   1       4.891  13.664  19.833 +0.00 -0.01    +0.194 C 
DOCKED: ATOM      2  C   UNL d   1       3.577  12.931  19.562 -0.02 -0.06    +0.194 C 
DOCKED: ATOM      3  C   UNL d   1       2.406  13.904  19.411 -0.04 -0.09    +0.194 C 
DOCKED: ATOM      4  C   UNL d   1       2.670  15.010  18.392 -0.05 -0.08    +0.194 C 
DOCKED: ATOM      5  C   UNL d   1       4.022  15.693  18.554 -0.01 -0.03    +0.194 C 
DOCKED: ATOM      6  C   UNL d   1       5.185  14.721  18.767 -0.01 +0.00    +0.194 C 
DOCKED: ENDROOT
DOCKED: BRANCH   1   7
DOCKED: ATOM      7  O   UNL d   1       5.953  12.708  19.789 +0.00 -0.01    -0.278 OA
DOCKED: BRANCH   7   8
DOCKED: ATOM      8  P   UNL d   1       6.626  12.386  18.377 -0.01 +0.12    +0.473 P 
DOCKED: ATOM      9  O   UNL d   1       5.802  12.741  17.189 -0.07 -0.06    -0.228 OA
DOCKED: BRANCH   8  10
DOCKED: ATOM     10  O   UNL d   1       8.021  13.159  18.427 -0.06 -0.17    -0.303 OA
DOCKED: ATOM     11  H   UNL d   1       7.903  14.016  18.879 +0.01 +0.10    +0.222 HD
DOCKED: ENDBRANCH   8  10
DOCKED: BRANCH   8  12
DOCKED: ATOM     12  O   UNL d   1       7.084  10.867  18.474 -0.01 -0.05    -0.303 OA
DOCKED: ATOM     13  H   UNL d   1       6.344  10.254  18.685 +0.02 +0.01    +0.222 HD
DOCKED: ENDBRANCH   8  12
DOCKED: ENDBRANCH   7   8
DOCKED: ENDBRANCH   1   7
DOCKED: BRANCH   2  14
DOCKED: ATOM     14  O   UNL d   1       3.704  12.178  18.350 -0.06 +0.12    -0.278 OA
DOCKED: BRANCH  14  15
DOCKED: ATOM     15  P   UNL d   1       3.608  10.585  18.483 -0.07 -0.19    +0.473 P 
DOCKED: ATOM     16  O   UNL d   1       4.497   9.781  17.586 -0.04 +0.04    -0.228 OA
DOCKED: BRANCH  15  17
DOCKED: ATOM     17  O   UNL d   1       3.878  10.309  20.029 -0.02 +0.06    -0.303 OA
DOCKED: ATOM     18  H   UNL d   1       3.041  10.253  20.528 +0.03 -0.05    +0.222 HD
DOCKED: ENDBRANCH  15  17
DOCKED: BRANCH  15  19
DOCKED: ATOM     19  O   UNL d   1       2.053  10.270  18.370 -0.16 +0.28    -0.303 OA
DOCKED: ATOM     20  H   UNL d   1       1.518  11.084  18.393 -0.52 -0.36    +0.222 HD
DOCKED: ENDBRANCH  15  19
DOCKED: ENDBRANCH  14  15
DOCKED: ENDBRANCH   2  14
DOCKED: BRANCH   6  21
DOCKED: ATOM     21  O   UNL d   1       6.287  15.494  19.237 -0.00 -0.04    -0.278 OA
DOCKED: BRANCH  21  22
DOCKED: ATOM     22  P   UNL d   1       7.295  16.154  18.191 -0.03 +0.18    +0.473 P 
DOCKED: ATOM     23  O   UNL d   1       7.011  17.539  17.717 -0.02 -0.05    -0.228 OA
DOCKED: BRANCH  22  24
DOCKED: ATOM     24  O   UNL d   1       8.694  15.975  18.928 -0.02 -0.11    -0.303 OA
DOCKED: ATOM     25  H   UNL d   1       9.055  15.083  18.691 +0.01 +0.12    +0.222 HD
DOCKED: ENDBRANCH  22  24
DOCKED: BRANCH  22  26
DOCKED: ATOM     26  O   UNL d   1       7.372  15.024  17.056 -0.39 -0.37    -0.303 OA
DOCKED: ATOM     27  H   UNL d   1       6.494  14.601  16.964 +0.03 +0.16    +0.222 HD
DOCKED: ENDBRANCH  22  26
DOCKED: ENDBRANCH  21  22
DOCKED: ENDBRANCH   6  21
DOCKED: BRANCH   3  28
DOCKED: ATOM     28  O   UNL d   1       1.303  13.171  18.893 -0.07 +0.30    -0.278 OA
DOCKED: BRANCH  28  29
DOCKED: ATOM     29  P   UNL d   1       0.276  12.458  19.881 -0.03 -0.35    +0.473 P 
DOCKED: ATOM     30  O   UNL d   1      -0.481  13.365  20.782 -0.03 +0.08    -0.228 OA
DOCKED: BRANCH  29  31
DOCKED: ATOM     31  O   UNL d   1      -0.575  11.603  18.829 +0.06 +0.47    -0.303 OA
DOCKED: ATOM     32  H   UNL d   1       0.048  11.084  18.270 -0.45 -0.51    +0.222 HD
DOCKED: ENDBRANCH  29  31
DOCKED: BRANCH  29  33
DOCKED: ATOM     33  O   UNL d   1       1.191  11.354  20.574 -0.03 +0.13    -0.303 OA
DOCKED: ATOM     34  H   UNL d   1       2.092  11.382  20.168 +0.03 -0.10    +0.222 HD
DOCKED: ENDBRANCH  29  33
DOCKED: ENDBRANCH  28  29
DOCKED: ENDBRANCH   3  28
DOCKED: BRANCH   5  35
DOCKED: ATOM     35  O   UNL d   1       4.263  16.372  17.324 -0.02 +0.04    -0.278 OA
DOCKED: BRANCH  35  36
DOCKED: ATOM     36  P   UNL d   1       4.263  15.567  15.947 -0.10 -0.11    +0.473 P 
DOCKED: ATOM     37  O   UNL d   1       3.858  14.130  16.040 -0.17 +0.08    -0.228 OA
DOCKED: BRANCH  36  38
DOCKED: ATOM     38  O   UNL d   1       3.302  16.462  15.046 -0.05 +0.31    -0.303 OA
DOCKED: ATOM     39  H   UNL d   1       2.453  15.986  14.912 -0.49 -0.45    +0.222 HD
DOCKED: ENDBRANCH  36  38
DOCKED: BRANCH  36  40
DOCKED: ATOM     40  O   UNL d   1       5.716  15.872  15.375 +0.01 -0.13    -0.303 OA
DOCKED: ATOM     41  H   UNL d   1       6.215  16.487  15.957 +0.05 +0.10    +0.222 HD
DOCKED: ENDBRANCH  36  40
DOCKED: ENDBRANCH  35  36
DOCKED: ENDBRANCH   5  35
DOCKED: BRANCH   4  42
DOCKED: ATOM     42  O   UNL d   1       1.667  16.010  18.596 -0.02 +0.11    -0.278 OA
DOCKED: BRANCH  42  43
DOCKED: ATOM     43  P   UNL d   1       0.468  16.124  17.550 -0.08 -0.26    +0.473 P 
DOCKED: ATOM     44  O   UNL d   1      -0.007  17.491  17.196 -0.05 +0.10    -0.228 OA
DOCKED: BRANCH  43  45
DOCKED: ATOM     45  O   UNL d   1       1.003  15.280  16.312 -0.19 +0.33    -0.303 OA
DOCKED: ATOM     46  H   UNL d   1       1.981  15.254  16.292 +0.04 -0.22    +0.222 HD
DOCKED: ENDBRANCH  43  45
DOCKED: BRANCH  43  47
DOCKED: ATOM     47  O   UNL d   1      -0.643  15.142  18.158 -0.12 +0.17    -0.303 OA
DOCKED: ATOM     48  H   UNL d   1      -0.259  14.646  18.910 +0.02 -0.14    +0.222 HD
DOCKED: ENDBRANCH  43  47
DOCKED: ENDBRANCH  42  43
DOCKED: ENDBRANCH   4  42
DOCKED: TORSDOF 24
DOCKED: TER
DOCKED: ENDMDL
________________________________________________________________________________


	BEGINNING GENETIC ALGORITHM DOCKING 83 of 100
Run: 83 Seed: 1012932826 1874762501 [ Run 83 of 100 GA/GALS ]
Beginning LAMARCKIAN GENETIC ALGORITHM (LGA), with a maximum of 25000000 energy evaluations.

Final-Value: -16.498


	FINAL GENETIC ALGORITHM DOCKED STATE
	_______________________________________________


Detailed state:  trans 5.337 -16.802 -5.313 quatxyzw -0.136929 0.638239 -0.748127 -0.119196 center 0.035 0.082 -0.065 ntor 24 132.8216 59.9740 26.6967 163.5107 48.7776 45.4675 -127.4383 -92.5001 22.9203 105.1616 -10.0846 -125.5061 156.9412 -83.0202 133.2946 -2.7699 -74.4383 -48.8215 43.1520 14.7101 154.8937 25.0397 -172.7184 167.8546
State:	  5.337 -16.802  -5.313  -0.138  0.643 -0.753 -166.309    132.82   59.97   26.70  163.51   48.78   45.47 -127.44  -92.50   22.92  105.16  -10.08 -125.51  156.94  -83.02  133.29   -2.77  -74.44  -48.82   43.15   14.71  154.89   25.04 -172.72  167.85

DOCKED: MODEL       83
DOCKED: USER    Run = 83
DOCKED: USER    DPF = D:/Protein_go_brrr/autodock/final/mut_Y35F/IHP/dock.dpf
DOCKED: USER  
DOCKED: USER    Estimated Free Energy of Binding    =   +0.59 kcal/mol  [=(1)+(2)+(3)-(4)]
DOCKED: USER    
DOCKED: USER    (1) Final Intermolecular Energy     =   -6.57 kcal/mol
DOCKED: USER        vdW + Hbond + desolv Energy     =   -6.17 kcal/mol
DOCKED: USER        Electrostatic Energy            =   -0.40 kcal/mol
DOCKED: USER    (2) Final Total Internal Energy     =   -9.92 kcal/mol
DOCKED: USER    (3) Torsional Free Energy           =   +7.16 kcal/mol
DOCKED: USER    (4) Unbound System's Energy  [=(2)] =   -9.92 kcal/mol
DOCKED: USER    
DOCKED: USER    
DOCKED: USER    NEWDPF move IHP_ideal_opt.pdbqt
DOCKED: USER    NEWDPF about 0.035000 0.082000 -0.065000
DOCKED: USER    NEWDPF tran0 5.337488 -16.801778 -5.313043
DOCKED: USER    NEWDPF quaternion0 -0.136929 0.638239 -0.748127 -0.119196
DOCKED: USER    NEWDPF axisangle0 -0.137912 0.642821 -0.753499 -166.308617
DOCKED: USER    NEWDPF quat0 -0.137912 0.642821 -0.753499 -166.308617
DOCKED: USER    NEWDPF dihe0 132.82 59.97 26.70 163.51 48.78 45.47 -127.44 -92.50 22.92 105.16 -10.08 -125.51 156.94 -83.02 133.29 -2.77 -74.44 -48.82 43.15 14.71 154.89 25.04 -172.72 167.85 
DOCKED: USER  keepresnum = 1 
DOCKED: USER  
DOCKED: REMARK  24 active torsions:
DOCKED: REMARK  status: ('A' for Active; 'I' for Inactive)
DOCKED: REMARK    1  A    between atoms: C_1  and  O_7 
DOCKED: REMARK    2  A    between atoms: C_2  and  O_12 
DOCKED: REMARK    3  A    between atoms: C_3  and  O_17 
DOCKED: REMARK    4  A    between atoms: C_4  and  O_22 
DOCKED: REMARK    5  A    between atoms: C_5  and  O_27 
DOCKED: REMARK    6  A    between atoms: C_6  and  O_32 
DOCKED: REMARK    7  A    between atoms: O_7  and  P_8 
DOCKED: REMARK    8  A    between atoms: P_8  and  O_10 
DOCKED: REMARK    9  A    between atoms: P_8  and  O_11 
DOCKED: REMARK   10  A    between atoms: O_12  and  P_13 
DOCKED: REMARK   11  A    between atoms: P_13  and  O_15 
DOCKED: REMARK   12  A    between atoms: P_13  and  O_16 
DOCKED: REMARK   13  A    between atoms: O_17  and  P_18 
DOCKED: REMARK   14  A    between atoms: P_18  and  O_20 
DOCKED: REMARK   15  A    between atoms: P_18  and  O_21 
DOCKED: REMARK   16  A    between atoms: O_22  and  P_23 
DOCKED: REMARK   17  A    between atoms: P_23  and  O_25 
DOCKED: REMARK   18  A    between atoms: P_23  and  O_26 
DOCKED: REMARK   19  A    between atoms: O_27  and  P_28 
DOCKED: REMARK   20  A    between atoms: P_28  and  O_30 
DOCKED: REMARK   21  A    between atoms: P_28  and  O_31 
DOCKED: REMARK   22  A    between atoms: O_32  and  P_33 
DOCKED: REMARK   23  A    between atoms: P_33  and  O_35 
DOCKED: REMARK   24  A    between atoms: P_33  and  O_36 
DOCKED: USER                              x       y       z     vdW  Elec       q    Type
DOCKED: USER                           _______ _______ _______ _____ _____    ______ ____
DOCKED: ROOT
DOCKED: ATOM      1  C   UNL d   1       4.446 -17.834  -4.253 -0.07 -0.05    +0.194 C 
DOCKED: ATOM      2  C   UNL d   1       5.477 -16.927  -3.579 -0.08 -0.06    +0.194 C 
DOCKED: ATOM      3  C   UNL d   1       6.792 -16.886  -4.361 -0.04 -0.07    +0.194 C 
DOCKED: ATOM      4  C   UNL d   1       6.604 -16.549  -5.838 -0.05 -0.07    +0.194 C 
DOCKED: ATOM      5  C   UNL d   1       5.505 -17.351  -6.522 -0.04 -0.05    +0.194 C 
DOCKED: ATOM      6  C   UNL d   1       4.210 -17.443  -5.712 -0.10 -0.06    +0.194 C 
DOCKED: ENDROOT
DOCKED: BRANCH   1   7
DOCKED: ATOM      7  O   UNL d   1       3.203 -17.684  -3.565 -0.13 +0.07    -0.278 OA
DOCKED: BRANCH   7   8
DOCKED: ATOM      8  P   UNL d   1       3.000 -18.463  -2.185 -0.14 -0.07    +0.473 P 
DOCKED: ATOM      9  O   UNL d   1       1.592 -18.823  -1.865 -0.20 -0.00    -0.228 OA
DOCKED: BRANCH   8  10
DOCKED: ATOM     10  O   UNL d   1       3.959 -19.731  -2.312 -0.03 +0.04    -0.303 OA
DOCKED: ATOM     11  H   UNL d   1       4.099 -19.942  -3.254 +0.03 -0.03    +0.222 HD
DOCKED: ENDBRANCH   8  10
DOCKED: BRANCH   8  12
DOCKED: ATOM     12  O   UNL d   1       3.755 -17.583  -1.099 -0.12 +0.10    -0.303 OA
DOCKED: ATOM     13  H   UNL d   1       3.971 -16.678  -1.418 -0.43 -0.12    +0.222 HD
DOCKED: ENDBRANCH   8  12
DOCKED: ENDBRANCH   7   8
DOCKED: ENDBRANCH   1   7
DOCKED: BRANCH   2  14
DOCKED: ATOM     14  O   UNL d   1       4.950 -15.597  -3.503 -0.16 +0.09    -0.278 OA
DOCKED: BRANCH  14  15
DOCKED: ATOM     15  P   UNL d   1       5.370 -14.733  -2.222 -0.20 -0.14    +0.473 P 
DOCKED: ATOM     16  O   UNL d   1       5.697 -15.494  -0.975 -0.28 +0.07    -0.228 OA
DOCKED: BRANCH  15  17
DOCKED: ATOM     17  O   UNL d   1       6.586 -13.842  -2.737 -0.32 +0.19    -0.303 OA
DOCKED: ATOM     18  H   UNL d   1       7.374 -14.390  -2.913 -0.02 -0.21    +0.222 HD
DOCKED: ENDBRANCH  15  17
DOCKED: BRANCH  15  19
DOCKED: ATOM     19  O   UNL d   1       4.216 -13.647  -2.080 -0.95 +0.03    -0.303 OA
DOCKED: ATOM     20  H   UNL d   1       3.601 -13.868  -1.356 -0.31 -0.05    +0.222 HD
DOCKED: ENDBRANCH  15  19
DOCKED: ENDBRANCH  14  15
DOCKED: ENDBRANCH   2  14
DOCKED: BRANCH   6  21
DOCKED: ATOM     21  O   UNL d   1       3.428 -18.480  -6.302 -0.05 +0.08    -0.278 OA
DOCKED: BRANCH  21  22
DOCKED: ATOM     22  P   UNL d   1       4.070 -19.922  -6.532 +0.01 -0.09    +0.473 P 
DOCKED: ATOM     23  O   UNL d   1       3.152 -21.069  -6.790 -0.01 +0.04    -0.228 OA
DOCKED: BRANCH  22  24
DOCKED: ATOM     24  O   UNL d   1       5.117 -19.631  -7.694 -0.00 +0.05    -0.303 OA
DOCKED: ATOM     25  H   UNL d   1       4.877 -18.767  -8.116 +0.02 -0.04    +0.222 HD
DOCKED: ENDBRANCH  22  24
DOCKED: BRANCH  22  26
DOCKED: ATOM     26  O   UNL d   1       5.026 -20.061  -5.252 -0.00 +0.05    -0.303 OA
DOCKED: ATOM     27  H   UNL d   1       5.925 -20.311  -5.548 +0.00 -0.03    +0.222 HD
DOCKED: ENDBRANCH  22  26
DOCKED: ENDBRANCH  21  22
DOCKED: ENDBRANCH   6  21
DOCKED: BRANCH   3  28
DOCKED: ATOM     28  O   UNL d   1       7.574 -15.825  -3.828 -0.09 +0.17    -0.278 OA
DOCKED: BRANCH  28  29
DOCKED: ATOM     29  P   UNL d   1       9.126 -16.036  -3.538 -0.06 -0.34    +0.473 P 
DOCKED: ATOM     30  O   UNL d   1       9.533 -17.426  -3.210 -0.02 +0.08    -0.228 OA
DOCKED: BRANCH  29  31
DOCKED: ATOM     31  O   UNL d   1       9.748 -15.391  -4.865 -0.09 +0.34    -0.303 OA
DOCKED: ATOM     32  H   UNL d   1       9.625 -16.025  -5.609 +0.03 -0.16    +0.222 HD
DOCKED: ENDBRANCH  29  31
DOCKED: BRANCH  29  33
DOCKED: ATOM     33  O   UNL d   1       9.415 -14.922  -2.437 -0.53 +0.28    -0.303 OA
DOCKED: ATOM     34  H   UNL d   1       8.841 -14.137  -2.616 -0.48 -0.46    +0.222 HD
DOCKED: ENDBRANCH  29  33
DOCKED: ENDBRANCH  28  29
DOCKED: ENDBRANCH   3  28
DOCKED: BRANCH   5  35
DOCKED: ATOM     35  O   UNL d   1       5.199 -16.643  -7.722 -0.07 +0.09    -0.278 OA
DOCKED: BRANCH  35  36
DOCKED: ATOM     36  P   UNL d   1       5.092 -15.051  -7.713 -0.13 -0.19    +0.473 P 
DOCKED: ATOM     37  O   UNL d   1       4.633 -14.444  -6.426 -0.41 +0.07    -0.228 OA
DOCKED: BRANCH  36  38
DOCKED: ATOM     38  O   UNL d   1       6.562 -14.623  -8.151 -0.12 +0.15    -0.303 OA
DOCKED: ATOM     39  H   UNL d   1       7.215 -15.135  -7.627 +0.05 -0.12    +0.222 HD
DOCKED: ENDBRANCH  36  38
DOCKED: BRANCH  36  40
DOCKED: ATOM     40  O   UNL d   1       4.208 -14.763  -9.003 -0.19 +0.14    -0.303 OA
DOCKED: ATOM     41  H   UNL d   1       3.306 -15.144  -8.920 -0.40 -0.17    +0.222 HD
DOCKED: ENDBRANCH  36  40
DOCKED: ENDBRANCH  35  36
DOCKED: ENDBRANCH   5  35
DOCKED: BRANCH   4  42
DOCKED: ATOM     42  O   UNL d   1       7.833 -16.871  -6.497 -0.01 +0.11    -0.278 OA
DOCKED: BRANCH  42  43
DOCKED: ATOM     43  P   UNL d   1       8.403 -18.357  -6.383 +0.01 -0.11    +0.473 P 
DOCKED: ATOM     44  O   UNL d   1       7.650 -19.317  -5.528 +0.00 +0.04    -0.228 OA
DOCKED: BRANCH  43  45
DOCKED: ATOM     45  O   UNL d   1       8.528 -18.800  -7.906 +0.00 +0.05    -0.303 OA
DOCKED: ATOM     46  H   UNL d   1       7.675 -19.125  -8.256 +0.00 -0.04    +0.222 HD
DOCKED: ENDBRANCH  43  45
DOCKED: BRANCH  43  47
DOCKED: ATOM     47  O   UNL d   1       9.938 -18.130  -5.981 +0.00 +0.08    -0.303 OA
DOCKED: ATOM     48  H   UNL d   1       9.983 -17.556  -5.189 +0.02 -0.08    +0.222 HD
DOCKED: ENDBRANCH  43  47
DOCKED: ENDBRANCH  42  43
DOCKED: ENDBRANCH   4  42
DOCKED: TORSDOF 24
DOCKED: TER
DOCKED: ENDMDL
________________________________________________________________________________


	BEGINNING GENETIC ALGORITHM DOCKING 84 of 100
Run: 84 Seed: 2119173371 1988932747 [ Run 84 of 100 GA/GALS ]
Beginning LAMARCKIAN GENETIC ALGORITHM (LGA), with a maximum of 25000000 energy evaluations.

Final-Value: -18.359


	FINAL GENETIC ALGORITHM DOCKED STATE
	_______________________________________________


Detailed state:  trans 4.605 -16.503 -6.950 quatxyzw 0.483425 0.450368 0.011354 -0.750560 center 0.035 0.082 -0.065 ntor 24 -160.0156 -7.4409 65.1774 104.3403 148.3982 -95.4924 -131.0916 -172.5754 3.0204 -88.2631 -159.1719 141.0182 19.1873 108.5930 -20.8170 101.6138 -175.4371 58.0679 -137.9660 -12.6305 148.7694 -11.5657 -24.0661 -17.0943
State:	  4.605 -16.503  -6.950   0.732  0.682  0.017 -82.722   -160.02   -7.44   65.18  104.34  148.40  -95.49 -131.09 -172.58    3.02  -88.26 -159.17  141.02   19.19  108.59  -20.82  101.61 -175.44   58.07 -137.97  -12.63  148.77  -11.57  -24.07  -17.09

DOCKED: MODEL       84
DOCKED: USER    Run = 84
DOCKED: USER    DPF = D:/Protein_go_brrr/autodock/final/mut_Y35F/IHP/dock.dpf
DOCKED: USER  
DOCKED: USER    Estimated Free Energy of Binding    =   +1.57 kcal/mol  [=(1)+(2)+(3)-(4)]
DOCKED: USER    
DOCKED: USER    (1) Final Intermolecular Energy     =   -5.59 kcal/mol
DOCKED: USER        vdW + Hbond + desolv Energy     =   -5.22 kcal/mol
DOCKED: USER        Electrostatic Energy            =   -0.37 kcal/mol
DOCKED: USER    (2) Final Total Internal Energy     =  -12.77 kcal/mol
DOCKED: USER    (3) Torsional Free Energy           =   +7.16 kcal/mol
DOCKED: USER    (4) Unbound System's Energy  [=(2)] =  -12.77 kcal/mol
DOCKED: USER    
DOCKED: USER    
DOCKED: USER    NEWDPF move IHP_ideal_opt.pdbqt
DOCKED: USER    NEWDPF about 0.035000 0.082000 -0.065000
DOCKED: USER    NEWDPF tran0 4.605189 -16.502736 -6.949803
DOCKED: USER    NEWDPF quaternion0 0.483425 0.450368 0.011354 -0.750560
DOCKED: USER    NEWDPF axisangle0 0.731573 0.681547 0.017183 -82.722205
DOCKED: USER    NEWDPF quat0 0.731573 0.681547 0.017183 -82.722205
DOCKED: USER    NEWDPF dihe0 -160.02 -7.44 65.18 104.34 148.40 -95.49 -131.09 -172.58 3.02 -88.26 -159.17 141.02 19.19 108.59 -20.82 101.61 -175.44 58.07 -137.97 -12.63 148.77 -11.57 -24.07 -17.09 
DOCKED: USER  keepresnum = 1 
DOCKED: USER  
DOCKED: REMARK  24 active torsions:
DOCKED: REMARK  status: ('A' for Active; 'I' for Inactive)
DOCKED: REMARK    1  A    between atoms: C_1  and  O_7 
DOCKED: REMARK    2  A    between atoms: C_2  and  O_12 
DOCKED: REMARK    3  A    between atoms: C_3  and  O_17 
DOCKED: REMARK    4  A    between atoms: C_4  and  O_22 
DOCKED: REMARK    5  A    between atoms: C_5  and  O_27 
DOCKED: REMARK    6  A    between atoms: C_6  and  O_32 
DOCKED: REMARK    7  A    between atoms: O_7  and  P_8 
DOCKED: REMARK    8  A    between atoms: P_8  and  O_10 
DOCKED: REMARK    9  A    between atoms: P_8  and  O_11 
DOCKED: REMARK   10  A    between atoms: O_12  and  P_13 
DOCKED: REMARK   11  A    between atoms: P_13  and  O_15 
DOCKED: REMARK   12  A    between atoms: P_13  and  O_16 
DOCKED: REMARK   13  A    between atoms: O_17  and  P_18 
DOCKED: REMARK   14  A    between atoms: P_18  and  O_20 
DOCKED: REMARK   15  A    between atoms: P_18  and  O_21 
DOCKED: REMARK   16  A    between atoms: O_22  and  P_23 
DOCKED: REMARK   17  A    between atoms: P_23  and  O_25 
DOCKED: REMARK   18  A    between atoms: P_23  and  O_26 
DOCKED: REMARK   19  A    between atoms: O_27  and  P_28 
DOCKED: REMARK   20  A    between atoms: P_28  and  O_30 
DOCKED: REMARK   21  A    between atoms: P_28  and  O_31 
DOCKED: REMARK   22  A    between atoms: O_32  and  P_33 
DOCKED: REMARK   23  A    between atoms: P_33  and  O_35 
DOCKED: REMARK   24  A    between atoms: P_33  and  O_36 
DOCKED: USER                              x       y       z     vdW  Elec       q    Type
DOCKED: USER                           _______ _______ _______ _____ _____    ______ ____
DOCKED: ROOT
DOCKED: ATOM      1  C   UNL d   1       5.521 -16.974  -8.336 -0.05 -0.05    +0.194 C 
DOCKED: ATOM      2  C   UNL d   1       4.190 -17.703  -8.145 -0.07 -0.06    +0.194 C 
DOCKED: ATOM      3  C   UNL d   1       3.967 -18.100  -6.684 -0.07 -0.06    +0.194 C 
DOCKED: ATOM      4  C   UNL d   1       4.132 -16.935  -5.712 -0.14 -0.06    +0.194 C 
DOCKED: ATOM      5  C   UNL d   1       5.392 -16.109  -5.941 -0.14 -0.07    +0.194 C 
DOCKED: ATOM      6  C   UNL d   1       5.648 -15.765  -7.409 -0.15 -0.07    +0.194 C 
DOCKED: ENDROOT
DOCKED: BRANCH   1   7
DOCKED: ATOM      7  O   UNL d   1       5.575 -16.489  -9.680 -0.03 +0.07    -0.278 OA
DOCKED: BRANCH   7   8
DOCKED: ATOM      8  P   UNL d   1       5.222 -14.954  -9.947 -0.12 -0.16    +0.473 P 
DOCKED: ATOM      9  O   UNL d   1       6.235 -13.979  -9.459 -0.16 +0.10    -0.228 OA
DOCKED: BRANCH   8  10
DOCKED: ATOM     10  O   UNL d   1       4.987 -14.880 -11.524 -0.08 +0.08    -0.303 OA
DOCKED: ATOM     11  H   UNL d   1       4.471 -15.656 -11.814 +0.05 -0.05    +0.222 HD
DOCKED: ENDBRANCH   8  10
DOCKED: BRANCH   8  12
DOCKED: ATOM     12  O   UNL d   1       3.748 -14.765  -9.383 -0.11 +0.16    -0.303 OA
DOCKED: ATOM     13  H   UNL d   1       3.111 -15.423  -9.742 -0.14 -0.12    +0.222 HD
DOCKED: ENDBRANCH   8  12
DOCKED: ENDBRANCH   7   8
DOCKED: ENDBRANCH   1   7
DOCKED: BRANCH   2  14
DOCKED: ATOM     14  O   UNL d   1       3.122 -16.839  -8.551 +0.06 +0.14    -0.278 OA
DOCKED: BRANCH  14  15
DOCKED: ATOM     15  P   UNL d   1       2.207 -17.352  -9.762 -0.08 -0.15    +0.473 P 
DOCKED: ATOM     16  O   UNL d   1       0.895 -16.658  -9.953 -0.30 +0.08    -0.228 OA
DOCKED: BRANCH  15  17
DOCKED: ATOM     17  O   UNL d   1       3.155 -17.241 -11.037 -0.04 +0.06    -0.303 OA
DOCKED: ATOM     18  H   UNL d   1       3.796 -16.511 -10.938 +0.06 -0.05    +0.222 HD
DOCKED: ENDBRANCH  15  17
DOCKED: BRANCH  15  19
DOCKED: ATOM     19  O   UNL d   1       2.127 -18.927  -9.558 -0.03 +0.06    -0.303 OA
DOCKED: ATOM     20  H   UNL d   1       1.962 -19.163  -8.627 +0.05 -0.06    +0.222 HD
DOCKED: ENDBRANCH  15  19
DOCKED: ENDBRANCH  14  15
DOCKED: ENDBRANCH   2  14
DOCKED: BRANCH   6  21
DOCKED: ATOM     21  O   UNL d   1       6.996 -15.310  -7.497 -0.07 +0.14    -0.278 OA
DOCKED: BRANCH  21  22
DOCKED: ATOM     22  P   UNL d   1       8.157 -16.131  -6.773 -0.02 -0.24    +0.473 P 
DOCKED: ATOM     23  O   UNL d   1       7.824 -17.468  -6.202 -0.01 +0.07    -0.228 OA
DOCKED: BRANCH  22  24
DOCKED: ATOM     24  O   UNL d   1       9.291 -16.145  -7.890 -0.01 +0.13    -0.303 OA
DOCKED: ATOM     25  H   UNL d   1       9.783 -15.287  -7.841 +0.02 -0.13    +0.222 HD
DOCKED: ENDBRANCH  22  24
DOCKED: BRANCH  22  26
DOCKED: ATOM     26  O   UNL d   1       8.726 -15.046  -5.738 -0.11 +0.34    -0.303 OA
DOCKED: ATOM     27  H   UNL d   1       8.242 -15.124  -4.891 -0.00 -0.25    +0.222 HD
DOCKED: ENDBRANCH  22  26
DOCKED: ENDBRANCH  21  22
DOCKED: ENDBRANCH   6  21
DOCKED: BRANCH   3  28
DOCKED: ATOM     28  O   UNL d   1       2.611 -18.511  -6.554 -0.08 +0.10    -0.278 OA
DOCKED: BRANCH  28  29
DOCKED: ATOM     29  P   UNL d   1       2.235 -20.058  -6.562 -0.01 -0.15    +0.473 P 
DOCKED: ATOM     30  O   UNL d   1       2.540 -20.798  -5.311 -0.03 +0.06    -0.228 OA
DOCKED: BRANCH  29  31
DOCKED: ATOM     31  O   UNL d   1       0.698 -19.969  -6.997 -0.08 +0.20    -0.303 OA
DOCKED: ATOM     32  H   UNL d   1       0.162 -19.727  -6.207 -0.45 -0.30    +0.222 HD
DOCKED: ENDBRANCH  29  31
DOCKED: BRANCH  29  33
DOCKED: ATOM     33  O   UNL d   1       2.948 -20.568  -7.892 -0.00 +0.06    -0.303 OA
DOCKED: ATOM     34  H   UNL d   1       2.256 -20.841  -8.543 +0.02 -0.04    +0.222 HD
DOCKED: ENDBRANCH  29  33
DOCKED: ENDBRANCH  28  29
DOCKED: ENDBRANCH   3  28
DOCKED: BRANCH   5  35
DOCKED: ATOM     35  O   UNL d   1       5.179 -14.879  -5.252 -0.73 +0.08    -0.278 OA
DOCKED: BRANCH  35  36
DOCKED: ATOM     36  P   UNL d   1       5.949 -14.577  -3.888 -0.16 -0.22    +0.473 P 
DOCKED: ATOM     37  O   UNL d   1       5.095 -14.093  -2.759 -0.61 +0.06    -0.228 OA
DOCKED: BRANCH  36  38
DOCKED: ATOM     38  O   UNL d   1       6.675 -15.967  -3.609 -0.07 +0.13    -0.303 OA
DOCKED: ATOM     39  H   UNL d   1       5.998 -16.649  -3.413 +0.08 -0.07    +0.222 HD
DOCKED: ENDBRANCH  36  38
DOCKED: BRANCH  36  40
DOCKED: ATOM     40  O   UNL d   1       7.125 -13.619  -4.366 -0.30 +0.41    -0.303 OA
DOCKED: ATOM     41  H   UNL d   1       7.999 -13.921  -4.033 -0.31 -0.53    +0.222 HD
DOCKED: ENDBRANCH  36  40
DOCKED: ENDBRANCH  35  36
DOCKED: ENDBRANCH   5  35
DOCKED: BRANCH   4  42
DOCKED: ATOM     42  O   UNL d   1       4.231 -17.500  -4.400 -0.06 +0.07    -0.278 OA
DOCKED: BRANCH  42  43
DOCKED: ATOM     43  P   UNL d   1       3.274 -16.949  -3.249 -0.12 -0.13    +0.473 P 
DOCKED: ATOM     44  O   UNL d   1       2.110 -17.794  -2.861 -0.26 +0.05    -0.228 OA
DOCKED: BRANCH  43  45
DOCKED: ATOM     45  O   UNL d   1       4.291 -16.657  -2.060 -0.15 +0.11    -0.303 OA
DOCKED: ATOM     46  H   UNL d   1       4.189 -15.746  -1.718 -0.40 -0.13    +0.222 HD
DOCKED: ENDBRANCH  43  45
DOCKED: BRANCH  43  47
DOCKED: ATOM     47  O   UNL d   1       2.918 -15.467  -3.745 +0.03 +0.09    -0.303 OA
DOCKED: ATOM     48  H   UNL d   1       3.719 -15.055  -4.130 +0.13 -0.06    +0.222 HD
DOCKED: ENDBRANCH  43  47
DOCKED: ENDBRANCH  42  43
DOCKED: ENDBRANCH   4  42
DOCKED: TORSDOF 24
DOCKED: TER
DOCKED: ENDMDL
________________________________________________________________________________


	BEGINNING GENETIC ALGORITHM DOCKING 85 of 100
Run: 85 Seed: 2056626905 2132315783 [ Run 85 of 100 GA/GALS ]
Beginning LAMARCKIAN GENETIC ALGORITHM (LGA), with a maximum of 25000000 energy evaluations.

Final-Value: -17.173


	FINAL GENETIC ALGORITHM DOCKED STATE
	_______________________________________________


Detailed state:  trans -21.384 -14.427 0.822 quatxyzw 0.378102 -0.026171 0.925264 0.015508 center 0.035 0.082 -0.065 ntor 24 -161.4962 56.1661 163.8368 130.8407 91.1597 142.6638 -148.0099 -77.9850 16.9456 45.0977 158.8639 124.5001 172.6363 85.0020 -107.7188 -61.0123 155.0983 -175.4047 22.7997 -28.1844 -15.7164 -24.8169 -14.9135 30.4570
State:	-21.384 -14.427   0.822   0.378 -0.026  0.925 178.223   -161.50   56.17  163.84  130.84   91.16  142.66 -148.01  -77.98   16.95   45.10  158.86  124.50  172.64   85.00 -107.72  -61.01  155.10 -175.40   22.80  -28.18  -15.72  -24.82  -14.91   30.46

DOCKED: MODEL       85
DOCKED: USER    Run = 85
DOCKED: USER    DPF = D:/Protein_go_brrr/autodock/final/mut_Y35F/IHP/dock.dpf
DOCKED: USER  
DOCKED: USER    Estimated Free Energy of Binding    =   +3.18 kcal/mol  [=(1)+(2)+(3)-(4)]
DOCKED: USER    
DOCKED: USER    (1) Final Intermolecular Energy     =   -3.98 kcal/mol
DOCKED: USER        vdW + Hbond + desolv Energy     =   -3.22 kcal/mol
DOCKED: USER        Electrostatic Energy            =   -0.76 kcal/mol
DOCKED: USER    (2) Final Total Internal Energy     =  -13.19 kcal/mol
DOCKED: USER    (3) Torsional Free Energy           =   +7.16 kcal/mol
DOCKED: USER    (4) Unbound System's Energy  [=(2)] =  -13.19 kcal/mol
DOCKED: USER    
DOCKED: USER    
DOCKED: USER    NEWDPF move IHP_ideal_opt.pdbqt
DOCKED: USER    NEWDPF about 0.035000 0.082000 -0.065000
DOCKED: USER    NEWDPF tran0 -21.383917 -14.427184 0.822414
DOCKED: USER    NEWDPF quaternion0 0.378102 -0.026171 0.925264 0.015508
DOCKED: USER    NEWDPF axisangle0 0.378147 -0.026174 0.925375 178.222802
DOCKED: USER    NEWDPF quat0 0.378147 -0.026174 0.925375 178.222802
DOCKED: USER    NEWDPF dihe0 -161.50 56.17 163.84 130.84 91.16 142.66 -148.01 -77.98 16.95 45.10 158.86 124.50 172.64 85.00 -107.72 -61.01 155.10 -175.40 22.80 -28.18 -15.72 -24.82 -14.91 30.46 
DOCKED: USER  keepresnum = 1 
DOCKED: USER  
DOCKED: REMARK  24 active torsions:
DOCKED: REMARK  status: ('A' for Active; 'I' for Inactive)
DOCKED: REMARK    1  A    between atoms: C_1  and  O_7 
DOCKED: REMARK    2  A    between atoms: C_2  and  O_12 
DOCKED: REMARK    3  A    between atoms: C_3  and  O_17 
DOCKED: REMARK    4  A    between atoms: C_4  and  O_22 
DOCKED: REMARK    5  A    between atoms: C_5  and  O_27 
DOCKED: REMARK    6  A    between atoms: C_6  and  O_32 
DOCKED: REMARK    7  A    between atoms: O_7  and  P_8 
DOCKED: REMARK    8  A    between atoms: P_8  and  O_10 
DOCKED: REMARK    9  A    between atoms: P_8  and  O_11 
DOCKED: REMARK   10  A    between atoms: O_12  and  P_13 
DOCKED: REMARK   11  A    between atoms: P_13  and  O_15 
DOCKED: REMARK   12  A    between atoms: P_13  and  O_16 
DOCKED: REMARK   13  A    between atoms: O_17  and  P_18 
DOCKED: REMARK   14  A    between atoms: P_18  and  O_20 
DOCKED: REMARK   15  A    between atoms: P_18  and  O_21 
DOCKED: REMARK   16  A    between atoms: O_22  and  P_23 
DOCKED: REMARK   17  A    between atoms: P_23  and  O_25 
DOCKED: REMARK   18  A    between atoms: P_23  and  O_26 
DOCKED: REMARK   19  A    between atoms: O_27  and  P_28 
DOCKED: REMARK   20  A    between atoms: P_28  and  O_30 
DOCKED: REMARK   21  A    between atoms: P_28  and  O_31 
DOCKED: REMARK   22  A    between atoms: O_32  and  P_33 
DOCKED: REMARK   23  A    between atoms: P_33  and  O_35 
DOCKED: REMARK   24  A    between atoms: P_33  and  O_36 
DOCKED: USER                              x       y       z     vdW  Elec       q    Type
DOCKED: USER                           _______ _______ _______ _____ _____    ______ ____
DOCKED: ROOT
DOCKED: ATOM      1  C   UNL d   1     -21.732 -13.631   2.315 -0.11 -0.19    +0.194 C 
DOCKED: ATOM      2  C   UNL d   1     -21.107 -12.754   1.228 -0.16 -0.14    +0.194 C 
DOCKED: ATOM      3  C   UNL d   1     -19.962 -13.472   0.510 -0.17 -0.14    +0.194 C 
DOCKED: ATOM      4  C   UNL d   1     -20.353 -14.851  -0.015 -0.11 -0.09    +0.194 C 
DOCKED: ATOM      5  C   UNL d   1     -21.083 -15.719   1.003 -0.08 -0.12    +0.194 C 
DOCKED: ATOM      6  C   UNL d   1     -22.187 -14.983   1.765 -0.10 -0.12    +0.194 C 
DOCKED: ENDROOT
DOCKED: BRANCH   1   7
DOCKED: ATOM      7  O   UNL d   1     -22.892 -12.962   2.815 -0.07 +0.14    -0.278 OA
DOCKED: BRANCH   7   8
DOCKED: ATOM      8  P   UNL d   1     -22.770 -12.154   4.188 -0.10 -0.21    +0.473 P 
DOCKED: ATOM      9  O   UNL d   1     -23.893 -12.360   5.143 -0.03 +0.06    -0.228 OA
DOCKED: BRANCH   8  10
DOCKED: ATOM     10  O   UNL d   1     -21.356 -12.601   4.776 -0.25 +0.30    -0.303 OA
DOCKED: ATOM     11  H   UNL d   1     -20.703 -12.653   4.053 -0.46 -0.43    +0.222 HD
DOCKED: ENDBRANCH   8  10
DOCKED: BRANCH   8  12
DOCKED: ATOM     12  O   UNL d   1     -22.491 -10.650   3.759 -0.09 +0.08    -0.303 OA
DOCKED: ATOM     13  H   UNL d   1     -22.621 -10.493   2.797 +0.05 -0.05    +0.222 HD
DOCKED: ENDBRANCH   8  12
DOCKED: ENDBRANCH   7   8
DOCKED: ENDBRANCH   1   7
DOCKED: BRANCH   2  14
DOCKED: ATOM     14  O   UNL d   1     -22.112 -12.418   0.264 -0.04 +0.09    -0.278 OA
DOCKED: BRANCH  14  15
DOCKED: ATOM     15  P   UNL d   1     -22.714 -10.936   0.343 -0.01 -0.09    +0.473 P 
DOCKED: ATOM     16  O   UNL d   1     -22.978 -10.248  -0.959 -0.01 +0.03    -0.228 OA
DOCKED: BRANCH  15  17
DOCKED: ATOM     17  O   UNL d   1     -24.025 -11.098   1.234 -0.01 +0.05    -0.303 OA
DOCKED: ATOM     18  H   UNL d   1     -23.798 -11.319   2.157 +0.03 -0.05    +0.222 HD
DOCKED: ENDBRANCH  15  17
DOCKED: BRANCH  15  19
DOCKED: ATOM     19  O   UNL d   1     -21.743 -10.167   1.341 -0.02 +0.07    -0.303 OA
DOCKED: ATOM     20  H   UNL d   1     -20.870 -10.001   0.938 +0.07 -0.06    +0.222 HD
DOCKED: ENDBRANCH  15  19
DOCKED: ENDBRANCH  14  15
DOCKED: ENDBRANCH   2  14
DOCKED: BRANCH   6  21
DOCKED: ATOM     21  O   UNL d   1     -22.527 -15.797   2.886 -0.09 +0.20    -0.278 OA
DOCKED: BRANCH  21  22
DOCKED: ATOM     22  P   UNL d   1     -24.005 -16.381   3.020 -0.01 -0.15    +0.473 P 
DOCKED: ATOM     23  O   UNL d   1     -25.085 -15.466   3.490 -0.00 +0.05    -0.228 OA
DOCKED: BRANCH  22  24
DOCKED: ATOM     24  O   UNL d   1     -24.241 -17.005   1.575 -0.00 +0.06    -0.303 OA
DOCKED: ATOM     25  H   UNL d   1     -23.357 -17.225   1.186 +0.01 -0.05    +0.222 HD
DOCKED: ENDBRANCH  22  24
DOCKED: BRANCH  22  26
DOCKED: ATOM     26  O   UNL d   1     -23.758 -17.691   3.910 -0.01 +0.09    -0.303 OA
DOCKED: ATOM     27  H   UNL d   1     -22.870 -18.053   3.711 +0.02 -0.08    +0.222 HD
DOCKED: ENDBRANCH  22  26
DOCKED: ENDBRANCH  21  22
DOCKED: ENDBRANCH   6  21
DOCKED: BRANCH   3  28
DOCKED: ATOM     28  O   UNL d   1     -19.635 -12.708  -0.644 -0.10 +0.11    -0.278 OA
DOCKED: BRANCH  28  29
DOCKED: ATOM     29  P   UNL d   1     -18.611 -11.493  -0.540 -0.16 -0.22    +0.473 P 
DOCKED: ATOM     30  O   UNL d   1     -19.206 -10.184  -0.166 -0.20 +0.11    -0.228 OA
DOCKED: BRANCH  29  31
DOCKED: ATOM     31  O   UNL d   1     -17.538 -12.117   0.469 -0.33 +0.19    -0.303 OA
DOCKED: ATOM     32  H   UNL d   1     -17.749 -11.811   1.382 -0.40 -0.30    +0.222 HD
DOCKED: ENDBRANCH  29  31
DOCKED: BRANCH  29  33
DOCKED: ATOM     33  O   UNL d   1     -17.861 -11.567  -1.942 -0.10 +0.08    -0.303 OA
DOCKED: ATOM     34  H   UNL d   1     -17.994 -12.467  -2.330 +0.07 -0.04    +0.222 HD
DOCKED: ENDBRANCH  29  33
DOCKED: ENDBRANCH  28  29
DOCKED: ENDBRANCH   3  28
DOCKED: BRANCH   5  35
DOCKED: ATOM     35  O   UNL d   1     -21.711 -16.754   0.250 -0.03 +0.08    -0.278 OA
DOCKED: BRANCH  35  36
DOCKED: ATOM     36  P   UNL d   1     -21.275 -18.275   0.453 -0.02 -0.11    +0.473 P 
DOCKED: ATOM     37  O   UNL d   1     -21.640 -19.205  -0.660 -0.00 +0.03    -0.228 OA
DOCKED: BRANCH  36  38
DOCKED: ATOM     38  O   UNL d   1     -19.708 -18.134   0.701 -0.06 +0.08    -0.303 OA
DOCKED: ATOM     39  H   UNL d   1     -19.312 -17.616  -0.033 +0.02 -0.05    +0.222 HD
DOCKED: ENDBRANCH  36  38
DOCKED: BRANCH  36  40
DOCKED: ATOM     40  O   UNL d   1     -21.862 -18.607   1.893 -0.02 +0.09    -0.303 OA
DOCKED: ATOM     41  H   UNL d   1     -22.372 -17.852   2.262 +0.02 -0.08    +0.222 HD
DOCKED: ENDBRANCH  36  40
DOCKED: ENDBRANCH  35  36
DOCKED: ENDBRANCH   5  35
DOCKED: BRANCH   4  42
DOCKED: ATOM     42  O   UNL d   1     -19.136 -15.528  -0.349 -0.10 +0.08    -0.278 OA
DOCKED: BRANCH  42  43
DOCKED: ATOM     43  P   UNL d   1     -18.432 -15.204  -1.743 -0.04 -0.07    +0.473 P 
DOCKED: ATOM     44  O   UNL d   1     -18.050 -16.358  -2.604 -0.03 +0.02    -0.228 OA
DOCKED: BRANCH  43  45
DOCKED: ATOM     45  O   UNL d   1     -19.455 -14.194  -2.425 -0.02 +0.04    -0.303 OA
DOCKED: ATOM     46  H   UNL d   1     -19.290 -13.272  -2.142 +0.05 -0.04    +0.222 HD
DOCKED: ENDBRANCH  43  45
DOCKED: BRANCH  43  47
DOCKED: ATOM     47  O   UNL d   1     -17.233 -14.224  -1.328 -0.11 +0.05    -0.303 OA
DOCKED: ATOM     48  H   UNL d   1     -17.599 -13.451  -0.850 +0.09 -0.06    +0.222 HD
DOCKED: ENDBRANCH  43  47
DOCKED: ENDBRANCH  42  43
DOCKED: ENDBRANCH   4  42
DOCKED: TORSDOF 24
DOCKED: TER
DOCKED: ENDMDL
________________________________________________________________________________


	BEGINNING GENETIC ALGORITHM DOCKING 86 of 100
Run: 86 Seed: 1522959858 419098058 [ Run 86 of 100 GA/GALS ]
Beginning LAMARCKIAN GENETIC ALGORITHM (LGA), with a maximum of 25000000 energy evaluations.

Final-Value: -18.598


	FINAL GENETIC ALGORITHM DOCKED STATE
	_______________________________________________


Detailed state:  trans 11.821 9.269 -15.893 quatxyzw -0.720937 -0.558317 0.098047 0.398646 center 0.035 0.082 -0.065 ntor 24 -172.2385 -48.6490 10.1230 53.6917 40.7792 -134.5638 12.0545 -172.9590 15.5984 -99.3489 13.4106 87.1077 108.4844 155.3197 140.5081 -1.1193 -66.8364 175.3152 8.3747 -33.0677 160.9002 -40.3000 -160.0285 18.9366
State:	 11.821   9.269 -15.893  -0.786 -0.609  0.107 133.013   -172.24  -48.65   10.12   53.69   40.78 -134.56   12.05 -172.96   15.60  -99.35   13.41   87.11  108.48  155.32  140.51   -1.12  -66.84  175.32    8.37  -33.07  160.90  -40.30 -160.03   18.94

DOCKED: MODEL       86
DOCKED: USER    Run = 86
DOCKED: USER    DPF = D:/Protein_go_brrr/autodock/final/mut_Y35F/IHP/dock.dpf
DOCKED: USER  
DOCKED: USER    Estimated Free Energy of Binding    =   +0.44 kcal/mol  [=(1)+(2)+(3)-(4)]
DOCKED: USER    
DOCKED: USER    (1) Final Intermolecular Energy     =   -6.72 kcal/mol
DOCKED: USER        vdW + Hbond + desolv Energy     =   -6.49 kcal/mol
DOCKED: USER        Electrostatic Energy            =   -0.23 kcal/mol
DOCKED: USER    (2) Final Total Internal Energy     =  -11.88 kcal/mol
DOCKED: USER    (3) Torsional Free Energy           =   +7.16 kcal/mol
DOCKED: USER    (4) Unbound System's Energy  [=(2)] =  -11.88 kcal/mol
DOCKED: USER    
DOCKED: USER    
DOCKED: USER    NEWDPF move IHP_ideal_opt.pdbqt
DOCKED: USER    NEWDPF about 0.035000 0.082000 -0.065000
DOCKED: USER    NEWDPF tran0 11.821117 9.269368 -15.892959
DOCKED: USER    NEWDPF quaternion0 -0.720937 -0.558317 0.098047 0.398646
DOCKED: USER    NEWDPF axisangle0 -0.786101 -0.608782 0.106909 133.012860
DOCKED: USER    NEWDPF quat0 -0.786101 -0.608782 0.106909 133.012860
DOCKED: USER    NEWDPF dihe0 -172.24 -48.65 10.12 53.69 40.78 -134.56 12.05 -172.96 15.60 -99.35 13.41 87.11 108.48 155.32 140.51 -1.12 -66.84 175.32 8.37 -33.07 160.90 -40.30 -160.03 18.94 
DOCKED: USER  keepresnum = 1 
DOCKED: USER  
DOCKED: REMARK  24 active torsions:
DOCKED: REMARK  status: ('A' for Active; 'I' for Inactive)
DOCKED: REMARK    1  A    between atoms: C_1  and  O_7 
DOCKED: REMARK    2  A    between atoms: C_2  and  O_12 
DOCKED: REMARK    3  A    between atoms: C_3  and  O_17 
DOCKED: REMARK    4  A    between atoms: C_4  and  O_22 
DOCKED: REMARK    5  A    between atoms: C_5  and  O_27 
DOCKED: REMARK    6  A    between atoms: C_6  and  O_32 
DOCKED: REMARK    7  A    between atoms: O_7  and  P_8 
DOCKED: REMARK    8  A    between atoms: P_8  and  O_10 
DOCKED: REMARK    9  A    between atoms: P_8  and  O_11 
DOCKED: REMARK   10  A    between atoms: O_12  and  P_13 
DOCKED: REMARK   11  A    between atoms: P_13  and  O_15 
DOCKED: REMARK   12  A    between atoms: P_13  and  O_16 
DOCKED: REMARK   13  A    between atoms: O_17  and  P_18 
DOCKED: REMARK   14  A    between atoms: P_18  and  O_20 
DOCKED: REMARK   15  A    between atoms: P_18  and  O_21 
DOCKED: REMARK   16  A    between atoms: O_22  and  P_23 
DOCKED: REMARK   17  A    between atoms: P_23  and  O_25 
DOCKED: REMARK   18  A    between atoms: P_23  and  O_26 
DOCKED: REMARK   19  A    between atoms: O_27  and  P_28 
DOCKED: REMARK   20  A    between atoms: P_28  and  O_30 
DOCKED: REMARK   21  A    between atoms: P_28  and  O_31 
DOCKED: REMARK   22  A    between atoms: O_32  and  P_33 
DOCKED: REMARK   23  A    between atoms: P_33  and  O_35 
DOCKED: REMARK   24  A    between atoms: P_33  and  O_36 
DOCKED: USER                              x       y       z     vdW  Elec       q    Type
DOCKED: USER                           _______ _______ _______ _____ _____    ______ ____
DOCKED: ROOT
DOCKED: ATOM      1  C   UNL d   1      11.725   9.691 -17.565 -0.02 -0.02    +0.194 C 
DOCKED: ATOM      2  C   UNL d   1      10.457   9.084 -16.963 -0.05 -0.02    +0.194 C 
DOCKED: ATOM      3  C   UNL d   1      10.774   7.889 -16.061 -0.12 -0.02    +0.194 C 
DOCKED: ATOM      4  C   UNL d   1      11.826   8.200 -14.999 -0.19 -0.03    +0.194 C 
DOCKED: ATOM      5  C   UNL d   1      13.061   8.910 -15.538 -0.13 -0.05    +0.194 C 
DOCKED: ATOM      6  C   UNL d   1      12.744  10.067 -16.489 -0.05 -0.03    +0.194 C 
DOCKED: ENDROOT
DOCKED: BRANCH   1   7
DOCKED: ATOM      7  O   UNL d   1      11.363  10.894 -18.248 -0.00 +0.02    -0.278 OA
DOCKED: BRANCH   7   8
DOCKED: ATOM      8  P   UNL d   1      11.529  10.946 -19.836 -0.00 -0.03    +0.473 P 
DOCKED: ATOM      9  O   UNL d   1      10.730  11.999 -20.520 +0.00 +0.01    -0.228 OA
DOCKED: BRANCH   8  10
DOCKED: ATOM     10  O   UNL d   1      13.101  11.107 -20.055 +0.00 +0.02    -0.303 OA
DOCKED: ATOM     11  H   UNL d   1      13.579  10.678 -19.321 +0.01 -0.02    +0.222 HD
DOCKED: ENDBRANCH   8  10
DOCKED: BRANCH   8  12
DOCKED: ATOM     12  O   UNL d   1      11.276   9.456 -20.326 -0.00 +0.02    -0.303 OA
DOCKED: ATOM     13  H   UNL d   1      12.105   8.933 -20.416 +0.00 -0.02    +0.222 HD
DOCKED: ENDBRANCH   8  12
DOCKED: ENDBRANCH   7   8
DOCKED: ENDBRANCH   1   7
DOCKED: BRANCH   2  14
DOCKED: ATOM     14  O   UNL d   1       9.787  10.081 -16.181 -0.07 +0.02    -0.278 OA
DOCKED: BRANCH  14  15
DOCKED: ATOM     15  P   UNL d   1       8.566  10.841 -16.884 -0.04 -0.02    +0.473 P 
DOCKED: ATOM     16  O   UNL d   1       8.324  12.257 -16.464 -0.05 +0.01    -0.228 OA
DOCKED: BRANCH  15  17
DOCKED: ATOM     17  O   UNL d   1       8.869  10.703 -18.442 -0.01 +0.02    -0.303 OA
DOCKED: ATOM     18  H   UNL d   1       9.464  11.414 -18.749 +0.01 -0.01    +0.222 HD
DOCKED: ENDBRANCH  15  17
DOCKED: BRANCH  15  19
DOCKED: ATOM     19  O   UNL d   1       7.331   9.853 -16.711 -0.07 +0.02    -0.303 OA
DOCKED: ATOM     20  H   UNL d   1       7.603   9.002 -16.320 +0.05 -0.02    +0.222 HD
DOCKED: ENDBRANCH  15  19
DOCKED: ENDBRANCH  14  15
DOCKED: ENDBRANCH   2  14
DOCKED: BRANCH   6  21
DOCKED: ATOM     21  O   UNL d   1      13.959  10.393 -17.160 -0.03 +0.04    -0.278 OA
DOCKED: BRANCH  21  22
DOCKED: ATOM     22  P   UNL d   1      14.714   9.281 -18.019 -0.03 -0.07    +0.473 P 
DOCKED: ATOM     23  O   UNL d   1      15.859   9.707 -18.874 -0.02 +0.03    -0.228 OA
DOCKED: BRANCH  22  24
DOCKED: ATOM     24  O   UNL d   1      15.076   8.202 -16.907 -0.10 +0.10    -0.303 OA
DOCKED: ATOM     25  H   UNL d   1      15.127   8.665 -16.032 -0.49 -0.14    +0.222 HD
DOCKED: ENDBRANCH  22  24
DOCKED: BRANCH  22  26
DOCKED: ATOM     26  O   UNL d   1      13.492   8.574 -18.780 -0.01 +0.03    -0.303 OA
DOCKED: ATOM     27  H   UNL d   1      12.946   9.259 -19.217 +0.01 -0.02    +0.222 HD
DOCKED: ENDBRANCH  22  26
DOCKED: ENDBRANCH  21  22
DOCKED: ENDBRANCH   6  21
DOCKED: BRANCH   3  28
DOCKED: ATOM     28  O   UNL d   1       9.591   7.572 -15.339 -0.16 +0.05    -0.278 OA
DOCKED: BRANCH  28  29
DOCKED: ATOM     29  P   UNL d   1       8.340   6.930 -16.086 -0.13 -0.09    +0.473 P 
DOCKED: ATOM     30  O   UNL d   1       8.219   7.257 -17.530 -0.05 +0.02    -0.228 OA
DOCKED: BRANCH  29  31
DOCKED: ATOM     31  O   UNL d   1       8.547   5.389 -15.706 -0.19 +0.07    -0.303 OA
DOCKED: ATOM     32  H   UNL d   1       8.462   5.293 -14.729 -0.27 -0.12    +0.222 HD
DOCKED: ENDBRANCH  29  31
DOCKED: BRANCH  29  33
DOCKED: ATOM     33  O   UNL d   1       7.130   7.364 -15.147 -0.16 +0.10    -0.303 OA
DOCKED: ATOM     34  H   UNL d   1       6.740   6.557 -14.731 -0.48 -0.14    +0.222 HD
DOCKED: ENDBRANCH  29  33
DOCKED: ENDBRANCH  28  29
DOCKED: ENDBRANCH   3  28
DOCKED: BRANCH   5  35
DOCKED: ATOM     35  O   UNL d   1      13.713   9.470 -14.400 -0.12 +0.10    -0.278 OA
DOCKED: BRANCH  35  36
DOCKED: ATOM     36  P   UNL d   1      12.866   9.905 -13.120 -0.20 -0.12    +0.473 P 
DOCKED: ATOM     37  O   UNL d   1      11.419  10.186 -13.370 -0.20 +0.03    -0.228 OA
DOCKED: BRANCH  36  38
DOCKED: ATOM     38  O   UNL d   1      13.135   8.693 -12.123 -0.74 +0.10    -0.303 OA
DOCKED: ATOM     39  H   UNL d   1      12.898   7.851 -12.570 +0.02 -0.06    +0.222 HD
DOCKED: ENDBRANCH  36  38
DOCKED: BRANCH  36  40
DOCKED: ATOM     40  O   UNL d   1      13.739  11.093 -12.523 -0.16 +0.08    -0.303 OA
DOCKED: ATOM     41  H   UNL d   1      13.761  11.071 -11.541 -0.01 -0.09    +0.222 HD
DOCKED: ENDBRANCH  36  40
DOCKED: ENDBRANCH  35  36
DOCKED: ENDBRANCH   5  35
DOCKED: BRANCH   4  42
DOCKED: ATOM     42  O   UNL d   1      12.262   6.944 -14.467 -0.27 +0.05    -0.278 OA
DOCKED: BRANCH  42  43
DOCKED: ATOM     43  P   UNL d   1      11.530   6.357 -13.177 -0.42 -0.08    +0.473 P 
DOCKED: ATOM     44  O   UNL d   1      12.382   5.721 -12.134 -0.65 +0.06    -0.228 OA
DOCKED: BRANCH  43  45
DOCKED: ATOM     45  O   UNL d   1      10.686   7.603 -12.658 -0.37 +0.05    -0.303 OA
DOCKED: ATOM     46  H   UNL d   1      11.264   8.362 -12.443 +0.14 -0.02    +0.222 HD
DOCKED: ENDBRANCH  43  45
DOCKED: BRANCH  43  47
DOCKED: ATOM     47  O   UNL d   1      10.385   5.424 -13.798 -0.27 +0.04    -0.303 OA
DOCKED: ATOM     48  H   UNL d   1       9.553   5.937 -13.869 -0.40 -0.08    +0.222 HD
DOCKED: ENDBRANCH  43  47
DOCKED: ENDBRANCH  42  43
DOCKED: ENDBRANCH   4  42
DOCKED: TORSDOF 24
DOCKED: TER
DOCKED: ENDMDL
________________________________________________________________________________


	BEGINNING GENETIC ALGORITHM DOCKING 87 of 100
Run: 87 Seed: 1679141881 1850704538 [ Run 87 of 100 GA/GALS ]
Beginning LAMARCKIAN GENETIC ALGORITHM (LGA), with a maximum of 25000000 energy evaluations.

Final-Value: -19.246


	FINAL GENETIC ALGORITHM DOCKED STATE
	_______________________________________________


Detailed state:  trans 16.618 14.883 -5.657 quatxyzw -0.222529 0.010108 0.972792 -0.063676 center 0.035 0.082 -0.065 ntor 24 179.8927 -38.8742 166.7493 -6.7181 22.6545 151.6790 -19.1773 -106.5293 53.3344 145.3912 -6.9184 164.6536 172.4096 175.8603 168.4825 -70.7123 -102.8056 -37.5680 -24.5215 13.8881 -14.8423 8.4695 -14.5021 9.7852
State:	 16.618  14.883  -5.657  -0.223  0.010  0.975 -172.698    179.89  -38.87  166.75   -6.72   22.65  151.68  -19.18 -106.53   53.33  145.39   -6.92  164.65  172.41  175.86  168.48  -70.71 -102.81  -37.57  -24.52   13.89  -14.84    8.47  -14.50    9.79

DOCKED: MODEL       87
DOCKED: USER    Run = 87
DOCKED: USER    DPF = D:/Protein_go_brrr/autodock/final/mut_Y35F/IHP/dock.dpf
DOCKED: USER  
DOCKED: USER    Estimated Free Energy of Binding    =   +0.50 kcal/mol  [=(1)+(2)+(3)-(4)]
DOCKED: USER    
DOCKED: USER    (1) Final Intermolecular Energy     =   -6.66 kcal/mol
DOCKED: USER        vdW + Hbond + desolv Energy     =   -6.01 kcal/mol
DOCKED: USER        Electrostatic Energy            =   -0.64 kcal/mol
DOCKED: USER    (2) Final Total Internal Energy     =  -12.59 kcal/mol
DOCKED: USER    (3) Torsional Free Energy           =   +7.16 kcal/mol
DOCKED: USER    (4) Unbound System's Energy  [=(2)] =  -12.59 kcal/mol
DOCKED: USER    
DOCKED: USER    
DOCKED: USER    NEWDPF move IHP_ideal_opt.pdbqt
DOCKED: USER    NEWDPF about 0.035000 0.082000 -0.065000
DOCKED: USER    NEWDPF tran0 16.618188 14.882699 -5.656591
DOCKED: USER    NEWDPF quaternion0 -0.222529 0.010108 0.972792 -0.063676
DOCKED: USER    NEWDPF axisangle0 -0.222981 0.010129 0.974770 -172.698354
DOCKED: USER    NEWDPF quat0 -0.222981 0.010129 0.974770 -172.698354
DOCKED: USER    NEWDPF dihe0 179.89 -38.87 166.75 -6.72 22.65 151.68 -19.18 -106.53 53.33 145.39 -6.92 164.65 172.41 175.86 168.48 -70.71 -102.81 -37.57 -24.52 13.89 -14.84 8.47 -14.50 9.79 
DOCKED: USER  keepresnum = 1 
DOCKED: USER  
DOCKED: REMARK  24 active torsions:
DOCKED: REMARK  status: ('A' for Active; 'I' for Inactive)
DOCKED: REMARK    1  A    between atoms: C_1  and  O_7 
DOCKED: REMARK    2  A    between atoms: C_2  and  O_12 
DOCKED: REMARK    3  A    between atoms: C_3  and  O_17 
DOCKED: REMARK    4  A    between atoms: C_4  and  O_22 
DOCKED: REMARK    5  A    between atoms: C_5  and  O_27 
DOCKED: REMARK    6  A    between atoms: C_6  and  O_32 
DOCKED: REMARK    7  A    between atoms: O_7  and  P_8 
DOCKED: REMARK    8  A    between atoms: P_8  and  O_10 
DOCKED: REMARK    9  A    between atoms: P_8  and  O_11 
DOCKED: REMARK   10  A    between atoms: O_12  and  P_13 
DOCKED: REMARK   11  A    between atoms: P_13  and  O_15 
DOCKED: REMARK   12  A    between atoms: P_13  and  O_16 
DOCKED: REMARK   13  A    between atoms: O_17  and  P_18 
DOCKED: REMARK   14  A    between atoms: P_18  and  O_20 
DOCKED: REMARK   15  A    between atoms: P_18  and  O_21 
DOCKED: REMARK   16  A    between atoms: O_22  and  P_23 
DOCKED: REMARK   17  A    between atoms: P_23  and  O_25 
DOCKED: REMARK   18  A    between atoms: P_23  and  O_26 
DOCKED: REMARK   19  A    between atoms: O_27  and  P_28 
DOCKED: REMARK   20  A    between atoms: P_28  and  O_30 
DOCKED: REMARK   21  A    between atoms: P_28  and  O_31 
DOCKED: REMARK   22  A    between atoms: O_32  and  P_33 
DOCKED: REMARK   23  A    between atoms: P_33  and  O_35 
DOCKED: REMARK   24  A    between atoms: P_33  and  O_36 
DOCKED: USER                              x       y       z     vdW  Elec       q    Type
DOCKED: USER                           _______ _______ _______ _____ _____    ______ ____
DOCKED: ROOT
DOCKED: ATOM      1  C   UNL d   1      15.272  15.951  -5.480 +0.02 -0.15    +0.194 C 
DOCKED: ATOM      2  C   UNL d   1      16.649  16.581  -5.264 -0.11 -0.12    +0.194 C 
DOCKED: ATOM      3  C   UNL d   1      17.560  15.680  -4.428 -0.14 -0.10    +0.194 C 
DOCKED: ATOM      4  C   UNL d   1      17.656  14.255  -4.969 -0.16 -0.06    +0.194 C 
DOCKED: ATOM      5  C   UNL d   1      16.310  13.628  -5.308 -0.20 -0.06    +0.194 C 
DOCKED: ATOM      6  C   UNL d   1      15.375  14.552  -6.090 -0.16 -0.08    +0.194 C 
DOCKED: ENDROOT
DOCKED: BRANCH   1   7
DOCKED: ATOM      7  O   UNL d   1      14.548  16.767  -6.405 -0.09 +0.17    -0.278 OA
DOCKED: BRANCH   7   8
DOCKED: ATOM      8  P   UNL d   1      12.963  16.877  -6.240 -0.10 -0.29    +0.473 P 
DOCKED: ATOM      9  O   UNL d   1      12.188  16.774  -7.506 -0.08 +0.05    -0.228 OA
DOCKED: BRANCH   8  10
DOCKED: ATOM     10  O   UNL d   1      12.603  15.733  -5.188 -0.15 +0.26    -0.303 OA
DOCKED: ATOM     11  H   UNL d   1      13.395  15.509  -4.665 -0.34 -0.31    +0.222 HD
DOCKED: ENDBRANCH   8  10
DOCKED: BRANCH   8  12
DOCKED: ATOM     12  O   UNL d   1      12.728  18.198  -5.388 -0.09 +0.27    -0.303 OA
DOCKED: ATOM     13  H   UNL d   1      12.808  18.051  -4.419 -0.48 -0.42    +0.222 HD
DOCKED: ENDBRANCH   8  12
DOCKED: ENDBRANCH   7   8
DOCKED: ENDBRANCH   1   7
DOCKED: BRANCH   2  14
DOCKED: ATOM     14  O   UNL d   1      17.267  16.801  -6.538 -0.02 +0.09    -0.278 OA
DOCKED: BRANCH  14  15
DOCKED: ATOM     15  P   UNL d   1      18.191  18.102  -6.670 +0.00 -0.11    +0.473 P 
DOCKED: ATOM     16  O   UNL d   1      17.912  19.009  -7.828 -0.00 +0.04    -0.228 OA
DOCKED: BRANCH  15  17
DOCKED: ATOM     17  O   UNL d   1      18.036  18.833  -5.263 -0.01 +0.10    -0.303 OA
DOCKED: ATOM     18  H   UNL d   1      18.489  18.334  -4.556 +0.02 -0.08    +0.222 HD
DOCKED: ENDBRANCH  15  17
DOCKED: BRANCH  15  19
DOCKED: ATOM     19  O   UNL d   1      19.678  17.545  -6.579 -0.00 +0.05    -0.303 OA
DOCKED: ATOM     20  H   UNL d   1      19.871  17.177  -5.697 +0.01 -0.04    +0.222 HD
DOCKED: ENDBRANCH  15  19
DOCKED: ENDBRANCH  14  15
DOCKED: ENDBRANCH   2  14
DOCKED: BRANCH   6  21
DOCKED: ATOM     21  O   UNL d   1      14.074  13.972  -6.028 -0.25 +0.10    -0.278 OA
DOCKED: BRANCH  21  22
DOCKED: ATOM     22  P   UNL d   1      13.356  13.492  -7.369 -0.17 -0.12    +0.473 P 
DOCKED: ATOM     23  O   UNL d   1      11.878  13.291  -7.344 -0.31 +0.04    -0.228 OA
DOCKED: BRANCH  22  24
DOCKED: ATOM     24  O   UNL d   1      13.864  14.577  -8.417 -0.04 +0.07    -0.303 OA
DOCKED: ATOM     25  H   UNL d   1      13.813  15.468  -7.987 +0.06 -0.06    +0.222 HD
DOCKED: ENDBRANCH  22  24
DOCKED: BRANCH  22  26
DOCKED: ATOM     26  O   UNL d   1      14.233  12.211  -7.768 -0.20 +0.09    -0.303 OA
DOCKED: ATOM     27  H   UNL d   1      15.114  12.280  -7.346 +0.12 -0.06    +0.222 HD
DOCKED: ENDBRANCH  22  26
DOCKED: ENDBRANCH  21  22
DOCKED: ENDBRANCH   6  21
DOCKED: BRANCH   3  28
DOCKED: ATOM     28  O   UNL d   1      18.878  16.206  -4.514 -0.04 +0.09    -0.278 OA
DOCKED: BRANCH  28  29
DOCKED: ATOM     29  P   UNL d   1      19.636  16.695  -3.201 -0.03 -0.15    +0.473 P 
DOCKED: ATOM     30  O   UNL d   1      19.566  18.153  -2.927 -0.02 +0.07    -0.228 OA
DOCKED: BRANCH  29  31
DOCKED: ATOM     31  O   UNL d   1      18.976  15.719  -2.118 -0.11 +0.13    -0.303 OA
DOCKED: ATOM     32  H   UNL d   1      18.769  14.860  -2.554 +0.04 -0.09    +0.222 HD
DOCKED: ENDBRANCH  29  31
DOCKED: BRANCH  29  33
DOCKED: ATOM     33  O   UNL d   1      21.086  16.069  -3.400 -0.01 +0.05    -0.303 OA
DOCKED: ATOM     34  H   UNL d   1      20.994  15.120  -3.662 +0.03 -0.04    +0.222 HD
DOCKED: ENDBRANCH  29  33
DOCKED: ENDBRANCH  28  29
DOCKED: ENDBRANCH   3  28
DOCKED: BRANCH   5  35
DOCKED: ATOM     35  O   UNL d   1      16.602  12.515  -6.151 -0.16 +0.08    -0.278 OA
DOCKED: BRANCH  35  36
DOCKED: ATOM     36  P   UNL d   1      16.266  11.032  -5.671 -0.31 -0.17    +0.473 P 
DOCKED: ATOM     37  O   UNL d   1      16.921  10.603  -4.396 -0.52 +0.10    -0.228 OA
DOCKED: BRANCH  36  38
DOCKED: ATOM     38  O   UNL d   1      14.675  11.060  -5.612 -0.39 +0.09    -0.303 OA
DOCKED: ATOM     39  H   UNL d   1      14.371  11.993  -5.612 +0.14 -0.07    +0.222 HD
DOCKED: ENDBRANCH  36  38
DOCKED: BRANCH  36  40
DOCKED: ATOM     40  O   UNL d   1      16.587  10.173  -6.971 -0.31 +0.11    -0.303 OA
DOCKED: ATOM     41  H   UNL d   1      17.441   9.694  -6.890 -0.47 -0.15    +0.222 HD
DOCKED: ENDBRANCH  36  40
DOCKED: ENDBRANCH  35  36
DOCKED: ENDBRANCH   5  35
DOCKED: BRANCH   4  42
DOCKED: ATOM     42  O   UNL d   1      18.244  13.458  -3.936 -0.15 +0.10    -0.278 OA
DOCKED: BRANCH  42  43
DOCKED: ATOM     43  P   UNL d   1      19.790  13.081  -4.038 -0.09 -0.12    +0.473 P 
DOCKED: ATOM     44  O   UNL d   1      20.587  13.736  -5.113 -0.04 +0.04    -0.228 OA
DOCKED: BRANCH  43  45
DOCKED: ATOM     45  O   UNL d   1      20.319  13.373  -2.566 -0.11 +0.06    -0.303 OA
DOCKED: ATOM     46  H   UNL d   1      20.483  14.328  -2.427 +0.05 -0.04    +0.222 HD
DOCKED: ENDBRANCH  43  45
DOCKED: BRANCH  43  47
DOCKED: ATOM     47  O   UNL d   1      19.775  11.478  -4.067 -0.23 +0.07    -0.303 OA
DOCKED: ATOM     48  H   UNL d   1      18.903  11.158  -3.757 -0.41 -0.10    +0.222 HD
DOCKED: ENDBRANCH  43  47
DOCKED: ENDBRANCH  42  43
DOCKED: ENDBRANCH   4  42
DOCKED: TORSDOF 24
DOCKED: TER
DOCKED: ENDMDL
________________________________________________________________________________


	BEGINNING GENETIC ALGORITHM DOCKING 88 of 100
Run: 88 Seed: 527064599 768742539 [ Run 88 of 100 GA/GALS ]
Beginning LAMARCKIAN GENETIC ALGORITHM (LGA), with a maximum of 25000000 energy evaluations.

Final-Value: -16.010


	FINAL GENETIC ALGORITHM DOCKED STATE
	_______________________________________________


Detailed state:  trans -2.643 16.738 19.071 quatxyzw 0.577590 0.728787 -0.078290 -0.359347 center 0.035 0.082 -0.065 ntor 24 -151.4203 27.3719 -179.9986 131.7098 101.0940 86.1279 40.9297 -94.1912 125.0873 2.3386 120.6021 -77.8334 -137.8764 90.0322 110.5586 -123.4285 98.0786 74.1536 49.8907 2.6297 -55.6897 10.9000 -15.7916 -175.6530
State:	 -2.643  16.738  19.071   0.619  0.781 -0.084 -137.880   -151.42   27.37 -180.00  131.71  101.09   86.13   40.93  -94.19  125.09    2.34  120.60  -77.83 -137.88   90.03  110.56 -123.43   98.08   74.15   49.89    2.63  -55.69   10.90  -15.79 -175.65

DOCKED: MODEL       88
DOCKED: USER    Run = 88
DOCKED: USER    DPF = D:/Protein_go_brrr/autodock/final/mut_Y35F/IHP/dock.dpf
DOCKED: USER  
DOCKED: USER    Estimated Free Energy of Binding    =   +4.32 kcal/mol  [=(1)+(2)+(3)-(4)]
DOCKED: USER    
DOCKED: USER    (1) Final Intermolecular Energy     =   -2.84 kcal/mol
DOCKED: USER        vdW + Hbond + desolv Energy     =   -2.64 kcal/mol
DOCKED: USER        Electrostatic Energy            =   -0.20 kcal/mol
DOCKED: USER    (2) Final Total Internal Energy     =  -13.17 kcal/mol
DOCKED: USER    (3) Torsional Free Energy           =   +7.16 kcal/mol
DOCKED: USER    (4) Unbound System's Energy  [=(2)] =  -13.17 kcal/mol
DOCKED: USER    
DOCKED: USER    
DOCKED: USER    NEWDPF move IHP_ideal_opt.pdbqt
DOCKED: USER    NEWDPF about 0.035000 0.082000 -0.065000
DOCKED: USER    NEWDPF tran0 -2.642977 16.737959 19.070959
DOCKED: USER    NEWDPF quaternion0 0.577590 0.728787 -0.078290 -0.359347
DOCKED: USER    NEWDPF axisangle0 0.618932 0.780952 -0.083894 -137.879838
DOCKED: USER    NEWDPF quat0 0.618932 0.780952 -0.083894 -137.879838
DOCKED: USER    NEWDPF dihe0 -151.42 27.37 -180.00 131.71 101.09 86.13 40.93 -94.19 125.09 2.34 120.60 -77.83 -137.88 90.03 110.56 -123.43 98.08 74.15 49.89 2.63 -55.69 10.90 -15.79 -175.65 
DOCKED: USER  keepresnum = 1 
DOCKED: USER  
DOCKED: REMARK  24 active torsions:
DOCKED: REMARK  status: ('A' for Active; 'I' for Inactive)
DOCKED: REMARK    1  A    between atoms: C_1  and  O_7 
DOCKED: REMARK    2  A    between atoms: C_2  and  O_12 
DOCKED: REMARK    3  A    between atoms: C_3  and  O_17 
DOCKED: REMARK    4  A    between atoms: C_4  and  O_22 
DOCKED: REMARK    5  A    between atoms: C_5  and  O_27 
DOCKED: REMARK    6  A    between atoms: C_6  and  O_32 
DOCKED: REMARK    7  A    between atoms: O_7  and  P_8 
DOCKED: REMARK    8  A    between atoms: P_8  and  O_10 
DOCKED: REMARK    9  A    between atoms: P_8  and  O_11 
DOCKED: REMARK   10  A    between atoms: O_12  and  P_13 
DOCKED: REMARK   11  A    between atoms: P_13  and  O_15 
DOCKED: REMARK   12  A    between atoms: P_13  and  O_16 
DOCKED: REMARK   13  A    between atoms: O_17  and  P_18 
DOCKED: REMARK   14  A    between atoms: P_18  and  O_20 
DOCKED: REMARK   15  A    between atoms: P_18  and  O_21 
DOCKED: REMARK   16  A    between atoms: O_22  and  P_23 
DOCKED: REMARK   17  A    between atoms: P_23  and  O_25 
DOCKED: REMARK   18  A    between atoms: P_23  and  O_26 
DOCKED: REMARK   19  A    between atoms: O_27  and  P_28 
DOCKED: REMARK   20  A    between atoms: P_28  and  O_30 
DOCKED: REMARK   21  A    between atoms: P_28  and  O_31 
DOCKED: REMARK   22  A    between atoms: O_32  and  P_33 
DOCKED: REMARK   23  A    between atoms: P_33  and  O_35 
DOCKED: REMARK   24  A    between atoms: P_33  and  O_36 
DOCKED: USER                              x       y       z     vdW  Elec       q    Type
DOCKED: USER                           _______ _______ _______ _____ _____    ______ ____
DOCKED: ROOT
DOCKED: ATOM      1  C   UNL d   1      -3.191  17.019  17.457 -0.06 +0.04    +0.194 C 
DOCKED: ATOM      2  C   UNL d   1      -3.980  15.976  18.251 -0.06 +0.09    +0.194 C 
DOCKED: ATOM      3  C   UNL d   1      -3.056  15.047  19.041 -0.08 +0.04    +0.194 C 
DOCKED: ATOM      4  C   UNL d   1      -2.051  15.797  19.912 -0.02 -0.02    +0.194 C 
DOCKED: ATOM      5  C   UNL d   1      -1.323  16.923  19.190 -0.01 -0.03    +0.194 C 
DOCKED: ATOM      6  C   UNL d   1      -2.239  17.816  18.351 -0.00 -0.01    +0.194 C 
DOCKED: ENDROOT
DOCKED: BRANCH   1   7
DOCKED: ATOM      7  O   UNL d   1      -4.121  17.946  16.892 -0.02 -0.03    -0.278 OA
DOCKED: BRANCH   7   8
DOCKED: ATOM      8  P   UNL d   1      -5.026  17.463  15.667 -0.03 +0.09    +0.473 P 
DOCKED: ATOM      9  O   UNL d   1      -4.402  17.611  14.324 -0.10 +0.02    -0.228 OA
DOCKED: BRANCH   8  10
DOCKED: ATOM     10  O   UNL d   1      -5.388  15.951  16.028 -0.60 -0.35    -0.303 OA
DOCKED: ATOM     11  H   UNL d   1      -5.738  15.907  16.937 +0.02 +0.18    +0.222 HD
DOCKED: ENDBRANCH   8  10
DOCKED: BRANCH   8  12
DOCKED: ATOM     12  O   UNL d   1      -6.421  18.196  15.870 -0.00 +0.02    -0.303 OA
DOCKED: ATOM     13  H   UNL d   1      -6.547  18.538  16.783 +0.01 -0.01    +0.222 HD
DOCKED: ENDBRANCH   8  12
DOCKED: ENDBRANCH   7   8
DOCKED: ENDBRANCH   1   7
DOCKED: BRANCH   2  14
DOCKED: ATOM     14  O   UNL d   1      -4.847  16.649  19.172 -0.01 -0.04    -0.278 OA
DOCKED: BRANCH  14  15
DOCKED: ATOM     15  P   UNL d   1      -6.358  16.122  19.248 +0.00 +0.07    +0.473 P 
DOCKED: ATOM     16  O   UNL d   1      -7.020  16.172  20.590 +0.00 -0.01    -0.228 OA
DOCKED: BRANCH  15  17
DOCKED: ATOM     17  O   UNL d   1      -7.124  16.983  18.149 +0.00 -0.03    -0.303 OA
DOCKED: ATOM     18  H   UNL d   1      -7.027  16.587  17.262 +0.02 +0.04    +0.222 HD
DOCKED: ENDBRANCH  15  17
DOCKED: BRANCH  15  19
DOCKED: ATOM     19  O   UNL d   1      -6.313  14.690  18.558 -0.04 -0.12    -0.303 OA
DOCKED: ATOM     20  H   UNL d   1      -5.864  14.032  19.120 +0.02 +0.08    +0.222 HD
DOCKED: ENDBRANCH  15  19
DOCKED: ENDBRANCH  14  15
DOCKED: ENDBRANCH   2  14
DOCKED: BRANCH   6  21
DOCKED: ATOM     21  O   UNL d   1      -1.397  18.578  17.489 -0.00 +0.06    -0.278 OA
DOCKED: BRANCH  21  22
DOCKED: ATOM     22  P   UNL d   1      -1.930  19.947  16.869 +0.02 -0.09    +0.473 P 
DOCKED: ATOM     23  O   UNL d   1      -0.981  21.094  16.771 +0.00 +0.05    -0.228 OA
DOCKED: BRANCH  22  24
DOCKED: ATOM     24  O   UNL d   1      -2.535  19.461  15.479 -0.01 +0.09    -0.303 OA
DOCKED: ATOM     25  H   UNL d   1      -2.929  18.562  15.613 +0.04 -0.04    +0.222 HD
DOCKED: ENDBRANCH  22  24
DOCKED: BRANCH  22  26
DOCKED: ATOM     26  O   UNL d   1      -3.254  20.204  17.735 +0.01 +0.03    -0.303 OA
DOCKED: ATOM     27  H   UNL d   1      -4.011  19.753  17.307 +0.01 -0.02    +0.222 HD
DOCKED: ENDBRANCH  22  26
DOCKED: ENDBRANCH  21  22
DOCKED: ENDBRANCH   6  21
DOCKED: BRANCH   3  28
DOCKED: ATOM     28  O   UNL d   1      -3.865  14.308  19.947 -0.03 -0.04    -0.278 OA
DOCKED: BRANCH  28  29
DOCKED: ATOM     29  P   UNL d   1      -3.884  12.717  19.895 -0.04 +0.03    +0.473 P 
DOCKED: ATOM     30  O   UNL d   1      -5.161  12.078  20.304 -0.01 -0.02    -0.228 OA
DOCKED: BRANCH  29  31
DOCKED: ATOM     31  O   UNL d   1      -3.404  12.481  18.386 -0.60 -0.09    -0.303 OA
DOCKED: ATOM     32  H   UNL d   1      -2.425  12.374  18.381 -0.55 -0.23    +0.222 HD
DOCKED: ENDBRANCH  29  31
DOCKED: BRANCH  29  33
DOCKED: ATOM     33  O   UNL d   1      -2.587  12.339  20.739 -0.02 +0.05    -0.303 OA
DOCKED: ATOM     34  H   UNL d   1      -1.887  13.017  20.573 +0.02 -0.06    +0.222 HD
DOCKED: ENDBRANCH  29  33
DOCKED: ENDBRANCH  28  29
DOCKED: ENDBRANCH   3  28
DOCKED: BRANCH   5  35
DOCKED: ATOM     35  O   UNL d   1      -0.764  17.742  20.215 +0.00 +0.03    -0.278 OA
DOCKED: BRANCH  35  36
DOCKED: ATOM     36  P   UNL d   1       0.819  17.867  20.372 +0.02 -0.06    +0.473 P 
DOCKED: ATOM     37  O   UNL d   1       1.324  19.222  20.752 +0.00 +0.02    -0.228 OA
DOCKED: BRANCH  36  38
DOCKED: ATOM     38  O   UNL d   1       1.131  16.729  21.442 +0.00 +0.04    -0.303 OA
DOCKED: ATOM     39  H   UNL d   1       0.772  15.875  21.117 +0.01 -0.04    +0.222 HD
DOCKED: ENDBRANCH  36  38
DOCKED: BRANCH  36  40
DOCKED: ATOM     40  O   UNL d   1       1.345  17.258  19.001 +0.00 +0.07    -0.303 OA
DOCKED: ATOM     41  H   UNL d   1       0.817  16.477  18.723 +0.03 -0.07    +0.222 HD
DOCKED: ENDBRANCH  36  40
DOCKED: ENDBRANCH  35  36
DOCKED: ENDBRANCH   5  35
DOCKED: BRANCH   4  42
DOCKED: ATOM     42  O   UNL d   1      -1.061  14.845  20.315 -0.02 +0.07    -0.278 OA
DOCKED: BRANCH  42  43
DOCKED: ATOM     43  P   UNL d   1       0.004  14.338  19.240 -0.04 -0.30    +0.473 P 
DOCKED: ATOM     44  O   UNL d   1       1.443  14.591  19.527 -0.04 +0.10    -0.228 OA
DOCKED: BRANCH  43  45
DOCKED: ATOM     45  O   UNL d   1      -0.367  12.799  19.082 -0.01 +0.39    -0.303 OA
DOCKED: ATOM     46  H   UNL d   1      -1.330  12.673  18.961 -0.38 -0.27    +0.222 HD
DOCKED: ENDBRANCH  43  45
DOCKED: BRANCH  43  47
DOCKED: ATOM     47  O   UNL d   1      -0.545  14.949  17.864 -0.13 +0.22    -0.303 OA
DOCKED: ATOM     48  H   UNL d   1      -0.025  15.747  17.635 +0.04 -0.12    +0.222 HD
DOCKED: ENDBRANCH  43  47
DOCKED: ENDBRANCH  42  43
DOCKED: ENDBRANCH   4  42
DOCKED: TORSDOF 24
DOCKED: TER
DOCKED: ENDMDL
________________________________________________________________________________


	BEGINNING GENETIC ALGORITHM DOCKING 89 of 100
Run: 89 Seed: 261720260 1975365791 [ Run 89 of 100 GA/GALS ]
Beginning LAMARCKIAN GENETIC ALGORITHM (LGA), with a maximum of 25000000 energy evaluations.

Final-Value: -18.908


	FINAL GENETIC ALGORITHM DOCKED STATE
	_______________________________________________


Detailed state:  trans 11.308 18.094 0.447 quatxyzw -0.630147 0.720966 -0.209674 0.197890 center 0.035 0.082 -0.065 ntor 24 144.9829 52.1724 114.4256 -9.2142 12.8151 -98.7441 5.5363 -105.5192 99.5218 25.6661 3.8511 -180.0000 143.2729 101.5450 -2.9144 -42.3425 43.7634 -89.1581 29.9134 -15.5432 -54.3649 145.4280 39.7539 -140.5066
State:	 11.308  18.094   0.447  -0.643  0.736 -0.214 157.173    144.98   52.17  114.43   -9.21   12.82  -98.74    5.54 -105.52   99.52   25.67    3.85 -180.00  143.27  101.55   -2.91  -42.34   43.76  -89.16   29.91  -15.54  -54.36  145.43   39.75 -140.51

DOCKED: MODEL       89
DOCKED: USER    Run = 89
DOCKED: USER    DPF = D:/Protein_go_brrr/autodock/final/mut_Y35F/IHP/dock.dpf
DOCKED: USER  
DOCKED: USER    Estimated Free Energy of Binding    =   +0.35 kcal/mol  [=(1)+(2)+(3)-(4)]
DOCKED: USER    
DOCKED: USER    (1) Final Intermolecular Energy     =   -6.81 kcal/mol
DOCKED: USER        vdW + Hbond + desolv Energy     =   -5.90 kcal/mol
DOCKED: USER        Electrostatic Energy            =   -0.91 kcal/mol
DOCKED: USER    (2) Final Total Internal Energy     =  -12.10 kcal/mol
DOCKED: USER    (3) Torsional Free Energy           =   +7.16 kcal/mol
DOCKED: USER    (4) Unbound System's Energy  [=(2)] =  -12.10 kcal/mol
DOCKED: USER    
DOCKED: USER    
DOCKED: USER    NEWDPF move IHP_ideal_opt.pdbqt
DOCKED: USER    NEWDPF about 0.035000 0.082000 -0.065000
DOCKED: USER    NEWDPF tran0 11.308078 18.093816 0.447417
DOCKED: USER    NEWDPF quaternion0 -0.630147 0.720966 -0.209674 0.197890
DOCKED: USER    NEWDPF axisangle0 -0.642860 0.735511 -0.213904 157.172788
DOCKED: USER    NEWDPF quat0 -0.642860 0.735511 -0.213904 157.172788
DOCKED: USER    NEWDPF dihe0 144.98 52.17 114.43 -9.21 12.82 -98.74 5.54 -105.52 99.52 25.67 3.85 -180.00 143.27 101.55 -2.91 -42.34 43.76 -89.16 29.91 -15.54 -54.36 145.43 39.75 -140.51 
DOCKED: USER  keepresnum = 1 
DOCKED: USER  
DOCKED: REMARK  24 active torsions:
DOCKED: REMARK  status: ('A' for Active; 'I' for Inactive)
DOCKED: REMARK    1  A    between atoms: C_1  and  O_7 
DOCKED: REMARK    2  A    between atoms: C_2  and  O_12 
DOCKED: REMARK    3  A    between atoms: C_3  and  O_17 
DOCKED: REMARK    4  A    between atoms: C_4  and  O_22 
DOCKED: REMARK    5  A    between atoms: C_5  and  O_27 
DOCKED: REMARK    6  A    between atoms: C_6  and  O_32 
DOCKED: REMARK    7  A    between atoms: O_7  and  P_8 
DOCKED: REMARK    8  A    between atoms: P_8  and  O_10 
DOCKED: REMARK    9  A    between atoms: P_8  and  O_11 
DOCKED: REMARK   10  A    between atoms: O_12  and  P_13 
DOCKED: REMARK   11  A    between atoms: P_13  and  O_15 
DOCKED: REMARK   12  A    between atoms: P_13  and  O_16 
DOCKED: REMARK   13  A    between atoms: O_17  and  P_18 
DOCKED: REMARK   14  A    between atoms: P_18  and  O_20 
DOCKED: REMARK   15  A    between atoms: P_18  and  O_21 
DOCKED: REMARK   16  A    between atoms: O_22  and  P_23 
DOCKED: REMARK   17  A    between atoms: P_23  and  O_25 
DOCKED: REMARK   18  A    between atoms: P_23  and  O_26 
DOCKED: REMARK   19  A    between atoms: O_27  and  P_28 
DOCKED: REMARK   20  A    between atoms: P_28  and  O_30 
DOCKED: REMARK   21  A    between atoms: P_28  and  O_31 
DOCKED: REMARK   22  A    between atoms: O_32  and  P_33 
DOCKED: REMARK   23  A    between atoms: P_33  and  O_35 
DOCKED: REMARK   24  A    between atoms: P_33  and  O_36 
DOCKED: USER                              x       y       z     vdW  Elec       q    Type
DOCKED: USER                           _______ _______ _______ _____ _____    ______ ____
DOCKED: ROOT
DOCKED: ATOM      1  C   UNL d   1      12.012  16.518   0.524 -0.21 -0.15    +0.194 C 
DOCKED: ATOM      2  C   UNL d   1      12.976  17.657   0.188 -0.01 -0.23    +0.194 C 
DOCKED: ATOM      3  C   UNL d   1      12.370  18.634  -0.822 -0.10 -0.20    +0.194 C 
DOCKED: ATOM      4  C   UNL d   1      10.992  19.146  -0.410 -0.07 -0.08    +0.194 C 
DOCKED: ATOM      5  C   UNL d   1      10.033  18.053   0.043 -0.12 -0.06    +0.194 C 
DOCKED: ATOM      6  C   UNL d   1      10.658  17.040   1.005 -0.15 -0.08    +0.194 C 
DOCKED: ENDROOT
DOCKED: BRANCH   1   7
DOCKED: ATOM      7  O   UNL d   1      12.578  15.755   1.591 -0.13 +0.14    -0.278 OA
DOCKED: BRANCH   7   8
DOCKED: ATOM      8  P   UNL d   1      13.477  14.486   1.224 -0.25 -0.20    +0.473 P 
DOCKED: ATOM      9  O   UNL d   1      13.740  13.551   2.352 -0.20 +0.04    -0.228 OA
DOCKED: BRANCH   8  10
DOCKED: ATOM     10  O   UNL d   1      12.701  13.801   0.010 -0.91 +0.11    -0.303 OA
DOCKED: ATOM     11  H   UNL d   1      11.807  14.185  -0.065 -0.42 -0.15    +0.222 HD
DOCKED: ENDBRANCH   8  10
DOCKED: BRANCH   8  12
DOCKED: ATOM     12  O   UNL d   1      14.761  15.083   0.504 +0.01 +0.30    -0.303 OA
DOCKED: ATOM     13  H   UNL d   1      14.795  16.066   0.531 -0.29 -0.37    +0.222 HD
DOCKED: ENDBRANCH   8  12
DOCKED: ENDBRANCH   7   8
DOCKED: ENDBRANCH   1   7
DOCKED: BRANCH   2  14
DOCKED: ATOM     14  O   UNL d   1      13.286  18.376   1.388 -0.05 +0.16    -0.278 OA
DOCKED: BRANCH  14  15
DOCKED: ATOM     15  P   UNL d   1      14.812  18.338   1.872 -0.03 -0.26    +0.473 P 
DOCKED: ATOM     16  O   UNL d   1      15.264  19.455   2.760 -0.01 +0.06    -0.228 OA
DOCKED: BRANCH  15  17
DOCKED: ATOM     17  O   UNL d   1      14.968  16.906   2.552 -0.03 +0.13    -0.303 OA
DOCKED: ATOM     18  H   UNL d   1      14.254  16.303   2.270 +0.05 -0.10    +0.222 HD
DOCKED: ENDBRANCH  15  17
DOCKED: BRANCH  15  19
DOCKED: ATOM     19  O   UNL d   1      15.648  18.147   0.532 +0.01 +0.38    -0.303 OA
DOCKED: ATOM     20  H   UNL d   1      15.512  17.263   0.145 -0.44 -0.58    +0.222 HD
DOCKED: ENDBRANCH  15  19
DOCKED: ENDBRANCH  14  15
DOCKED: ENDBRANCH   2  14
DOCKED: BRANCH   6  21
DOCKED: ATOM     21  O   UNL d   1       9.774  15.923   1.059 -0.24 +0.08    -0.278 OA
DOCKED: BRANCH  21  22
DOCKED: ATOM     22  P   UNL d   1       9.797  14.956   2.328 -0.25 -0.11    +0.473 P 
DOCKED: ATOM     23  O   UNL d   1      10.235  15.521   3.637 -0.19 +0.05    -0.228 OA
DOCKED: BRANCH  22  24
DOCKED: ATOM     24  O   UNL d   1       8.317  14.369   2.316 -0.28 +0.08    -0.303 OA
DOCKED: ATOM     25  H   UNL d   1       7.684  15.130   2.294 -0.45 -0.13    +0.222 HD
DOCKED: ENDBRANCH  22  24
DOCKED: BRANCH  22  26
DOCKED: ATOM     26  O   UNL d   1      10.650  13.716   1.777 -0.24 +0.07    -0.303 OA
DOCKED: ATOM     27  H   UNL d   1      11.602  13.892   1.920 +0.10 -0.06    +0.222 HD
DOCKED: ENDBRANCH  22  26
DOCKED: ENDBRANCH  21  22
DOCKED: ENDBRANCH   6  21
DOCKED: BRANCH   3  28
DOCKED: ATOM     28  O   UNL d   1      13.205  19.784  -0.860 -0.08 +0.22    -0.278 OA
DOCKED: BRANCH  28  29
DOCKED: ATOM     29  P   UNL d   1      12.754  21.129  -0.134 -0.00 -0.16    +0.473 P 
DOCKED: ATOM     30  O   UNL d   1      11.590  21.825  -0.741 -0.00 +0.05    -0.228 OA
DOCKED: BRANCH  29  31
DOCKED: ATOM     31  O   UNL d   1      12.581  20.594   1.364 -0.00 +0.09    -0.303 OA
DOCKED: ATOM     32  H   UNL d   1      13.433  20.196   1.656 +0.01 -0.07    +0.222 HD
DOCKED: ENDBRANCH  29  31
DOCKED: BRANCH  29  33
DOCKED: ATOM     33  O   UNL d   1      14.121  21.943  -0.061 -0.00 +0.08    -0.303 OA
DOCKED: ATOM     34  H   UNL d   1      14.836  21.341   0.262 +0.01 -0.07    +0.222 HD
DOCKED: ENDBRANCH  29  33
DOCKED: ENDBRANCH  28  29
DOCKED: ENDBRANCH   3  28
DOCKED: BRANCH   5  35
DOCKED: ATOM     35  O   UNL d   1       8.992  18.721   0.753 -0.05 +0.05    -0.278 OA
DOCKED: BRANCH  35  36
DOCKED: ATOM     36  P   UNL d   1       7.677  17.928   1.186 -0.17 -0.08    +0.473 P 
DOCKED: ATOM     37  O   UNL d   1       7.747  17.239   2.512 -0.22 +0.08    -0.228 OA
DOCKED: BRANCH  36  38
DOCKED: ATOM     38  O   UNL d   1       6.567  19.067   1.098 -0.14 +0.02    -0.303 OA
DOCKED: ATOM     39  H   UNL d   1       6.828  19.717   0.411 +0.07 -0.01    +0.222 HD
DOCKED: ENDBRANCH  36  38
DOCKED: BRANCH  36  40
DOCKED: ATOM     40  O   UNL d   1       7.394  17.018  -0.087 -0.19 +0.00    -0.303 OA
DOCKED: ATOM     41  H   UNL d   1       7.894  17.328  -0.874 +0.10 +0.01    +0.222 HD
DOCKED: ENDBRANCH  36  40
DOCKED: ENDBRANCH  35  36
DOCKED: ENDBRANCH   5  35
DOCKED: BRANCH   4  42
DOCKED: ATOM     42  O   UNL d   1      10.415  19.760  -1.568 -0.03 +0.09    -0.278 OA
DOCKED: BRANCH  42  43
DOCKED: ATOM     43  P   UNL d   1       9.206  19.026  -2.308 -0.08 -0.05    +0.473 P 
DOCKED: ATOM     44  O   UNL d   1       9.319  17.556  -2.514 -0.24 +0.02    -0.228 OA
DOCKED: BRANCH  43  45
DOCKED: ATOM     45  O   UNL d   1       7.947  19.468  -1.440 -0.05 -0.01    -0.303 OA
DOCKED: ATOM     46  H   UNL d   1       7.964  19.059  -0.552 +0.08 -0.01    +0.222 HD
DOCKED: ENDBRANCH  43  45
DOCKED: BRANCH  43  47
DOCKED: ATOM     47  O   UNL d   1       9.008  19.899  -3.638 -0.05 +0.00    -0.303 OA
DOCKED: ATOM     48  H   UNL d   1       9.650  20.639  -3.637 +0.03 -0.02    +0.222 HD
DOCKED: ENDBRANCH  43  47
DOCKED: ENDBRANCH  42  43
DOCKED: ENDBRANCH   4  42
DOCKED: TORSDOF 24
DOCKED: TER
DOCKED: ENDMDL
________________________________________________________________________________


	BEGINNING GENETIC ALGORITHM DOCKING 90 of 100
Run: 90 Seed: 484386293 640597251 [ Run 90 of 100 GA/GALS ]
Beginning LAMARCKIAN GENETIC ALGORITHM (LGA), with a maximum of 25000000 energy evaluations.

Final-Value: -20.359


	FINAL GENETIC ALGORITHM DOCKED STATE
	_______________________________________________


Detailed state:  trans -14.216 5.965 15.057 quatxyzw -0.142280 0.867955 -0.282876 0.382612 center 0.035 0.082 -0.065 ntor 24 151.1728 80.8470 149.6595 157.1329 -57.9021 173.8165 -46.1527 -162.8161 94.9892 29.8983 120.8134 -96.9093 129.5356 70.9273 23.8051 119.5242 164.9002 102.6407 52.8046 12.6466 162.0588 -8.6525 -21.0054 165.0484
State:	-14.216   5.965  15.057  -0.154  0.939 -0.306 135.009    151.17   80.85  149.66  157.13  -57.90  173.82  -46.15 -162.82   94.99   29.90  120.81  -96.91  129.54   70.93   23.81  119.52  164.90  102.64   52.80   12.65  162.06   -8.65  -21.01  165.05

DOCKED: MODEL       90
DOCKED: USER    Run = 90
DOCKED: USER    DPF = D:/Protein_go_brrr/autodock/final/mut_Y35F/IHP/dock.dpf
DOCKED: USER  
DOCKED: USER    Estimated Free Energy of Binding    =   +1.20 kcal/mol  [=(1)+(2)+(3)-(4)]
DOCKED: USER    
DOCKED: USER    (1) Final Intermolecular Energy     =   -5.96 kcal/mol
DOCKED: USER        vdW + Hbond + desolv Energy     =   -5.35 kcal/mol
DOCKED: USER        Electrostatic Energy            =   -0.60 kcal/mol
DOCKED: USER    (2) Final Total Internal Energy     =  -14.40 kcal/mol
DOCKED: USER    (3) Torsional Free Energy           =   +7.16 kcal/mol
DOCKED: USER    (4) Unbound System's Energy  [=(2)] =  -14.40 kcal/mol
DOCKED: USER    
DOCKED: USER    
DOCKED: USER    NEWDPF move IHP_ideal_opt.pdbqt
DOCKED: USER    NEWDPF about 0.035000 0.082000 -0.065000
DOCKED: USER    NEWDPF tran0 -14.216025 5.965064 15.056635
DOCKED: USER    NEWDPF quaternion0 -0.142280 0.867955 -0.282876 0.382612
DOCKED: USER    NEWDPF axisangle0 -0.153997 0.939437 -0.306173 135.008831
DOCKED: USER    NEWDPF quat0 -0.153997 0.939437 -0.306173 135.008831
DOCKED: USER    NEWDPF dihe0 151.17 80.85 149.66 157.13 -57.90 173.82 -46.15 -162.82 94.99 29.90 120.81 -96.91 129.54 70.93 23.81 119.52 164.90 102.64 52.80 12.65 162.06 -8.65 -21.01 165.05 
DOCKED: USER  keepresnum = 1 
DOCKED: USER  
DOCKED: REMARK  24 active torsions:
DOCKED: REMARK  status: ('A' for Active; 'I' for Inactive)
DOCKED: REMARK    1  A    between atoms: C_1  and  O_7 
DOCKED: REMARK    2  A    between atoms: C_2  and  O_12 
DOCKED: REMARK    3  A    between atoms: C_3  and  O_17 
DOCKED: REMARK    4  A    between atoms: C_4  and  O_22 
DOCKED: REMARK    5  A    between atoms: C_5  and  O_27 
DOCKED: REMARK    6  A    between atoms: C_6  and  O_32 
DOCKED: REMARK    7  A    between atoms: O_7  and  P_8 
DOCKED: REMARK    8  A    between atoms: P_8  and  O_10 
DOCKED: REMARK    9  A    between atoms: P_8  and  O_11 
DOCKED: REMARK   10  A    between atoms: O_12  and  P_13 
DOCKED: REMARK   11  A    between atoms: P_13  and  O_15 
DOCKED: REMARK   12  A    between atoms: P_13  and  O_16 
DOCKED: REMARK   13  A    between atoms: O_17  and  P_18 
DOCKED: REMARK   14  A    between atoms: P_18  and  O_20 
DOCKED: REMARK   15  A    between atoms: P_18  and  O_21 
DOCKED: REMARK   16  A    between atoms: O_22  and  P_23 
DOCKED: REMARK   17  A    between atoms: P_23  and  O_25 
DOCKED: REMARK   18  A    between atoms: P_23  and  O_26 
DOCKED: REMARK   19  A    between atoms: O_27  and  P_28 
DOCKED: REMARK   20  A    between atoms: P_28  and  O_30 
DOCKED: REMARK   21  A    between atoms: P_28  and  O_31 
DOCKED: REMARK   22  A    between atoms: O_32  and  P_33 
DOCKED: REMARK   23  A    between atoms: P_33  and  O_35 
DOCKED: REMARK   24  A    between atoms: P_33  and  O_36 
DOCKED: USER                              x       y       z     vdW  Elec       q    Type
DOCKED: USER                           _______ _______ _______ _____ _____    ______ ____
DOCKED: ROOT
DOCKED: ATOM      1  C   UNL d   1     -15.102   4.742  15.896 -0.03 +0.04    +0.194 C 
DOCKED: ATOM      2  C   UNL d   1     -13.682   4.359  15.476 -0.06 +0.05    +0.194 C 
DOCKED: ATOM      3  C   UNL d   1     -13.367   4.824  14.053 -0.13 +0.11    +0.194 C 
DOCKED: ATOM      4  C   UNL d   1     -13.655   6.306  13.827 -0.11 +0.16    +0.194 C 
DOCKED: ATOM      5  C   UNL d   1     -15.018   6.758  14.336 -0.04 +0.10    +0.194 C 
DOCKED: ATOM      6  C   UNL d   1     -15.359   6.241  15.735 -0.01 +0.05    +0.194 C 
DOCKED: ENDROOT
DOCKED: BRANCH   1   7
DOCKED: ATOM      7  O   UNL d   1     -15.256   4.430  17.283 -0.01 -0.03    -0.278 OA
DOCKED: BRANCH   7   8
DOCKED: ATOM      8  P   UNL d   1     -15.300   2.892  17.714 -0.01 +0.03    +0.473 P 
DOCKED: ATOM      9  O   UNL d   1     -15.491   2.651  19.170 -0.01 -0.01    -0.228 OA
DOCKED: BRANCH   8  10
DOCKED: ATOM     10  O   UNL d   1     -16.465   2.273  16.817 -0.03 -0.02    -0.303 OA
DOCKED: ATOM     11  H   UNL d   1     -16.915   2.986  16.327 +0.02 +0.02    +0.222 HD
DOCKED: ENDBRANCH   8  10
DOCKED: BRANCH   8  12
DOCKED: ATOM     12  O   UNL d   1     -14.002   2.244  17.067 -0.04 -0.02    -0.303 OA
DOCKED: ATOM     13  H   UNL d   1     -13.230   2.854  17.060 +0.05 +0.02    +0.222 HD
DOCKED: ENDBRANCH   8  12
DOCKED: ENDBRANCH   7   8
DOCKED: ENDBRANCH   1   7
DOCKED: BRANCH   2  14
DOCKED: ATOM     14  O   UNL d   1     -12.747   4.972  16.374 -0.04 -0.06    -0.278 OA
DOCKED: BRANCH  14  15
DOCKED: ATOM     15  P   UNL d   1     -11.436   4.125  16.730 -0.03 +0.03    +0.473 P 
DOCKED: ATOM     16  O   UNL d   1     -10.119   4.802  16.511 -0.21 -0.01    -0.228 OA
DOCKED: BRANCH  15  17
DOCKED: ATOM     17  O   UNL d   1     -11.659   3.683  18.244 -0.07 -0.01    -0.303 OA
DOCKED: ATOM     18  H   UNL d   1     -12.515   3.227  18.355 +0.04 +0.01    +0.222 HD
DOCKED: ENDBRANCH  15  17
DOCKED: BRANCH  15  19
DOCKED: ATOM     19  O   UNL d   1     -11.634   2.746  15.962 -0.11 -0.00    -0.303 OA
DOCKED: ATOM     20  H   UNL d   1     -11.161   2.736  15.110 -0.28 +0.01    +0.222 HD
DOCKED: ENDBRANCH  15  19
DOCKED: ENDBRANCH  14  15
DOCKED: ENDBRANCH   2  14
DOCKED: BRANCH   6  21
DOCKED: ATOM     21  O   UNL d   1     -16.757   6.448  15.922 -0.00 -0.05    -0.278 OA
DOCKED: BRANCH  21  22
DOCKED: ATOM     22  P   UNL d   1     -17.799   5.756  14.932 +0.00 +0.09    +0.473 P 
DOCKED: ATOM     23  O   UNL d   1     -17.715   4.279  14.740 -0.04 -0.04    -0.228 OA
DOCKED: BRANCH  22  24
DOCKED: ATOM     24  O   UNL d   1     -19.189   6.277  15.506 -0.00 -0.03    -0.303 OA
DOCKED: ATOM     25  H   UNL d   1     -19.751   5.488  15.716 +0.00 +0.02    +0.222 HD
DOCKED: ENDBRANCH  22  24
DOCKED: BRANCH  22  26
DOCKED: ATOM     26  O   UNL d   1     -17.633   6.647  13.609 -0.00 -0.09    -0.303 OA
DOCKED: ATOM     27  H   UNL d   1     -16.966   7.344  13.773 +0.01 +0.08    +0.222 HD
DOCKED: ENDBRANCH  22  26
DOCKED: ENDBRANCH  21  22
DOCKED: ENDBRANCH   6  21
DOCKED: BRANCH   3  28
DOCKED: ATOM     28  O   UNL d   1     -11.966   4.678  13.854 -0.19 -0.18    -0.278 OA
DOCKED: BRANCH  28  29
DOCKED: ATOM     29  P   UNL d   1     -11.396   3.444  13.024 -0.35 +0.36    +0.473 P 
DOCKED: ATOM     30  O   UNL d   1     -11.174   3.694  11.577 -0.78 -0.32    -0.228 OA
DOCKED: BRANCH  29  31
DOCKED: ATOM     31  O   UNL d   1     -10.109   3.086  13.905 -0.49 -0.14    -0.303 OA
DOCKED: ATOM     32  H   UNL d   1     -10.112   3.654  14.710 -0.45 +0.03    +0.222 HD
DOCKED: ENDBRANCH  29  31
DOCKED: BRANCH  29  33
DOCKED: ATOM     33  O   UNL d   1     -12.418   2.284  13.406 -0.25 -0.12    -0.303 OA
DOCKED: ATOM     34  H   UNL d   1     -11.987   1.678  14.057 -0.44 -0.00    +0.222 HD
DOCKED: ENDBRANCH  29  33
DOCKED: ENDBRANCH  28  29
DOCKED: ENDBRANCH   3  28
DOCKED: BRANCH   5  35
DOCKED: ATOM     35  O   UNL d   1     -14.949   8.180  14.419 -0.04 -0.16    -0.278 OA
DOCKED: BRANCH  35  36
DOCKED: ATOM     36  P   UNL d   1     -15.771   9.087  13.396 -0.02 +0.29    +0.473 P 
DOCKED: ATOM     37  O   UNL d   1     -15.169  10.421  13.089 -0.04 -0.15    -0.228 OA
DOCKED: BRANCH  36  38
DOCKED: ATOM     38  O   UNL d   1     -15.901   8.121  12.136 -0.08 -0.26    -0.303 OA
DOCKED: ATOM     39  H   UNL d   1     -15.833   7.189  12.437 +0.03 +0.17    +0.222 HD
DOCKED: ENDBRANCH  36  38
DOCKED: BRANCH  36  40
DOCKED: ATOM     40  O   UNL d   1     -17.228   9.082  14.034 +0.00 -0.08    -0.303 OA
DOCKED: ATOM     41  H   UNL d   1     -17.312   8.409  14.745 +0.01 +0.05    +0.222 HD
DOCKED: ENDBRANCH  36  40
DOCKED: ENDBRANCH  35  36
DOCKED: ENDBRANCH   5  35
DOCKED: BRANCH   4  42
DOCKED: ATOM     42  O   UNL d   1     -13.643   6.520  12.411 -0.30 -0.45    -0.278 OA
DOCKED: BRANCH  42  43
DOCKED: ATOM     43  P   UNL d   1     -14.577   5.617  11.487 -0.12 +0.61    +0.473 P 
DOCKED: ATOM     44  O   UNL d   1     -15.116   6.235  10.243 -0.11 -0.29    -0.228 OA
DOCKED: BRANCH  43  45
DOCKED: ATOM     45  O   UNL d   1     -13.679   4.327  11.237 -0.64 -0.66    -0.303 OA
DOCKED: ATOM     46  H   UNL d   1     -13.295   3.991  12.071 +0.09 +0.32    +0.222 HD
DOCKED: ENDBRANCH  43  45
DOCKED: BRANCH  43  47
DOCKED: ATOM     47  O   UNL d   1     -15.675   5.056  12.512 -0.07 -0.21    -0.303 OA
DOCKED: ATOM     48  H   UNL d   1     -16.371   5.733  12.641 +0.04 +0.12    +0.222 HD
DOCKED: ENDBRANCH  43  47
DOCKED: ENDBRANCH  42  43
DOCKED: ENDBRANCH   4  42
DOCKED: TORSDOF 24
DOCKED: TER
DOCKED: ENDMDL
________________________________________________________________________________


	BEGINNING GENETIC ALGORITHM DOCKING 91 of 100
Run: 91 Seed: 1841549984 1524210183 [ Run 91 of 100 GA/GALS ]
Beginning LAMARCKIAN GENETIC ALGORITHM (LGA), with a maximum of 25000000 energy evaluations.

Final-Value: -16.856


	FINAL GENETIC ALGORITHM DOCKED STATE
	_______________________________________________


Detailed state:  trans -9.378 -18.002 -13.837 quatxyzw -0.321701 0.297764 -0.857946 -0.267907 center 0.035 0.082 -0.065 ntor 24 130.7977 49.3195 157.3675 44.1500 -20.5197 -119.6226 -7.2544 -174.2006 135.6927 0.0401 14.6047 -158.8018 -48.1746 -160.3229 -162.2202 143.8332 -174.3413 139.3091 24.0116 -31.9456 -51.1105 -38.6598 10.4555 -16.0773
State:	 -9.378 -18.002 -13.837  -0.334  0.309 -0.890 -148.921    130.80   49.32  157.37   44.15  -20.52 -119.62   -7.25 -174.20  135.69    0.04   14.60 -158.80  -48.17 -160.32 -162.22  143.83 -174.34  139.31   24.01  -31.95  -51.11  -38.66   10.46  -16.08

DOCKED: MODEL       91
DOCKED: USER    Run = 91
DOCKED: USER    DPF = D:/Protein_go_brrr/autodock/final/mut_Y35F/IHP/dock.dpf
DOCKED: USER  
DOCKED: USER    Estimated Free Energy of Binding    =   +3.77 kcal/mol  [=(1)+(2)+(3)-(4)]
DOCKED: USER    
DOCKED: USER    (1) Final Intermolecular Energy     =   -3.38 kcal/mol
DOCKED: USER        vdW + Hbond + desolv Energy     =   -3.28 kcal/mol
DOCKED: USER        Electrostatic Energy            =   -0.10 kcal/mol
DOCKED: USER    (2) Final Total Internal Energy     =  -13.47 kcal/mol
DOCKED: USER    (3) Torsional Free Energy           =   +7.16 kcal/mol
DOCKED: USER    (4) Unbound System's Energy  [=(2)] =  -13.47 kcal/mol
DOCKED: USER    
DOCKED: USER    
DOCKED: USER    NEWDPF move IHP_ideal_opt.pdbqt
DOCKED: USER    NEWDPF about 0.035000 0.082000 -0.065000
DOCKED: USER    NEWDPF tran0 -9.377815 -18.001775 -13.837285
DOCKED: USER    NEWDPF quaternion0 -0.321701 0.297764 -0.857946 -0.267907
DOCKED: USER    NEWDPF axisangle0 -0.333908 0.309061 -0.890498 -148.920536
DOCKED: USER    NEWDPF quat0 -0.333908 0.309061 -0.890498 -148.920536
DOCKED: USER    NEWDPF dihe0 130.80 49.32 157.37 44.15 -20.52 -119.62 -7.25 -174.20 135.69 0.04 14.60 -158.80 -48.17 -160.32 -162.22 143.83 -174.34 139.31 24.01 -31.95 -51.11 -38.66 10.46 -16.08 
DOCKED: USER  keepresnum = 1 
DOCKED: USER  
DOCKED: REMARK  24 active torsions:
DOCKED: REMARK  status: ('A' for Active; 'I' for Inactive)
DOCKED: REMARK    1  A    between atoms: C_1  and  O_7 
DOCKED: REMARK    2  A    between atoms: C_2  and  O_12 
DOCKED: REMARK    3  A    between atoms: C_3  and  O_17 
DOCKED: REMARK    4  A    between atoms: C_4  and  O_22 
DOCKED: REMARK    5  A    between atoms: C_5  and  O_27 
DOCKED: REMARK    6  A    between atoms: C_6  and  O_32 
DOCKED: REMARK    7  A    between atoms: O_7  and  P_8 
DOCKED: REMARK    8  A    between atoms: P_8  and  O_10 
DOCKED: REMARK    9  A    between atoms: P_8  and  O_11 
DOCKED: REMARK   10  A    between atoms: O_12  and  P_13 
DOCKED: REMARK   11  A    between atoms: P_13  and  O_15 
DOCKED: REMARK   12  A    between atoms: P_13  and  O_16 
DOCKED: REMARK   13  A    between atoms: O_17  and  P_18 
DOCKED: REMARK   14  A    between atoms: P_18  and  O_20 
DOCKED: REMARK   15  A    between atoms: P_18  and  O_21 
DOCKED: REMARK   16  A    between atoms: O_22  and  P_23 
DOCKED: REMARK   17  A    between atoms: P_23  and  O_25 
DOCKED: REMARK   18  A    between atoms: P_23  and  O_26 
DOCKED: REMARK   19  A    between atoms: O_27  and  P_28 
DOCKED: REMARK   20  A    between atoms: P_28  and  O_30 
DOCKED: REMARK   21  A    between atoms: P_28  and  O_31 
DOCKED: REMARK   22  A    between atoms: O_32  and  P_33 
DOCKED: REMARK   23  A    between atoms: P_33  and  O_35 
DOCKED: REMARK   24  A    between atoms: P_33  and  O_36 
DOCKED: USER                              x       y       z     vdW  Elec       q    Type
DOCKED: USER                           _______ _______ _______ _____ _____    ______ ____
DOCKED: ROOT
DOCKED: ATOM      1  C   UNL d   1      -9.867 -18.483 -12.252 -0.13 +0.03    +0.194 C 
DOCKED: ATOM      2  C   UNL d   1      -9.534 -16.999 -12.419 -0.18 +0.02    +0.194 C 
DOCKED: ATOM      3  C   UNL d   1      -8.269 -16.792 -13.255 -0.18 +0.04    +0.194 C 
DOCKED: ATOM      4  C   UNL d   1      -8.304 -17.531 -14.591 -0.13 +0.07    +0.194 C 
DOCKED: ATOM      5  C   UNL d   1      -8.742 -18.986 -14.485 -0.12 +0.09    +0.194 C 
DOCKED: ATOM      6  C   UNL d   1      -9.971 -19.199 -13.599 -0.07 +0.05    +0.194 C 
DOCKED: ENDROOT
DOCKED: BRANCH   1   7
DOCKED: ATOM      7  O   UNL d   1     -11.143 -18.585 -11.615 -0.05 -0.03    -0.278 OA
DOCKED: BRANCH   7   8
DOCKED: ATOM      8  P   UNL d   1     -11.186 -18.845 -10.039 -0.05 +0.03    +0.473 P 
DOCKED: ATOM      9  O   UNL d   1      -9.858 -18.878  -9.368 -0.15 +0.00    -0.228 OA
DOCKED: BRANCH   8  10
DOCKED: ATOM     10  O   UNL d   1     -12.143 -17.696  -9.483 -0.05 -0.03    -0.303 OA
DOCKED: ATOM     11  H   UNL d   1     -12.108 -16.925 -10.079 +0.06 +0.03    +0.222 HD
DOCKED: ENDBRANCH   8  10
DOCKED: BRANCH   8  12
DOCKED: ATOM     12  O   UNL d   1     -12.085 -20.143  -9.860 -0.02 -0.02    -0.303 OA
DOCKED: ATOM     13  H   UNL d   1     -12.363 -20.541 -10.716 +0.01 +0.01    +0.222 HD
DOCKED: ENDBRANCH   8  12
DOCKED: ENDBRANCH   7   8
DOCKED: ENDBRANCH   1   7
DOCKED: BRANCH   2  14
DOCKED: ATOM     14  O   UNL d   1     -10.628 -16.347 -13.078 -0.06 -0.03    -0.278 OA
DOCKED: BRANCH  14  15
DOCKED: ATOM     15  P   UNL d   1     -11.647 -15.539 -12.143 -0.10 +0.06    +0.473 P 
DOCKED: ATOM     16  O   UNL d   1     -12.976 -16.178 -11.889 -0.09 -0.02    -0.228 OA
DOCKED: BRANCH  15  17
DOCKED: ATOM     17  O   UNL d   1     -10.822 -15.277 -10.806 -0.13 -0.07    -0.303 OA
DOCKED: ATOM     18  H   UNL d   1     -10.028 -14.735 -10.983 +0.09 +0.04    +0.222 HD
DOCKED: ENDBRANCH  15  17
DOCKED: BRANCH  15  19
DOCKED: ATOM     19  O   UNL d   1     -11.697 -14.081 -12.779 -0.08 -0.04    -0.303 OA
DOCKED: ATOM     20  H   UNL d   1     -10.957 -13.931 -13.396 +0.05 +0.02    +0.222 HD
DOCKED: ENDBRANCH  15  19
DOCKED: ENDBRANCH  14  15
DOCKED: ENDBRANCH   2  14
DOCKED: BRANCH   6  21
DOCKED: ATOM     21  O   UNL d   1     -10.044 -20.596 -13.324 -0.03 -0.07    -0.278 OA
DOCKED: BRANCH  21  22
DOCKED: ATOM     22  P   UNL d   1     -11.455 -21.267 -12.999 +0.00 +0.06    +0.473 P 
DOCKED: ATOM     23  O   UNL d   1     -11.551 -22.166 -11.813 -0.01 -0.02    -0.228 OA
DOCKED: BRANCH  22  24
DOCKED: ATOM     24  O   UNL d   1     -12.415 -19.999 -12.954 -0.00 -0.03    -0.303 OA
DOCKED: ATOM     25  H   UNL d   1     -12.391 -19.626 -12.037 +0.02 +0.02    +0.222 HD
DOCKED: ENDBRANCH  22  24
DOCKED: BRANCH  22  26
DOCKED: ATOM     26  O   UNL d   1     -11.837 -21.923 -14.411 +0.00 -0.04    -0.303 OA
DOCKED: ATOM     27  H   UNL d   1     -11.204 -22.642 -14.614 +0.01 +0.04    +0.222 HD
DOCKED: ENDBRANCH  22  26
DOCKED: ENDBRANCH  21  22
DOCKED: ENDBRANCH   6  21
DOCKED: BRANCH   3  28
DOCKED: ATOM     28  O   UNL d   1      -8.197 -15.412 -13.588 -0.12 -0.03    -0.278 OA
DOCKED: BRANCH  28  29
DOCKED: ATOM     29  P   UNL d   1      -7.834 -14.333 -12.474 -0.25 -0.01    +0.473 P 
DOCKED: ATOM     30  O   UNL d   1      -6.585 -13.565 -12.708 -0.24 +0.02    -0.228 OA
DOCKED: BRANCH  29  31
DOCKED: ATOM     31  O   UNL d   1      -9.201 -13.502 -12.436 -0.19 -0.01    -0.303 OA
DOCKED: ATOM     32  H   UNL d   1      -9.955 -14.137 -12.437 +0.08 +0.02    +0.222 HD
DOCKED: ENDBRANCH  29  31
DOCKED: BRANCH  29  33
DOCKED: ATOM     33  O   UNL d   1      -7.909 -15.195 -11.138 -0.35 +0.04    -0.303 OA
DOCKED: ATOM     34  H   UNL d   1      -8.649 -14.855 -10.577 +0.06 -0.01    +0.222 HD
DOCKED: ENDBRANCH  29  33
DOCKED: ENDBRANCH  28  29
DOCKED: ENDBRANCH   3  28
DOCKED: BRANCH   5  35
DOCKED: ATOM     35  O   UNL d   1      -9.104 -19.378 -15.807 -0.06 -0.12    -0.278 OA
DOCKED: BRANCH  35  36
DOCKED: ATOM     36  P   UNL d   1      -8.738 -20.836 -16.342 -0.06 +0.31    +0.473 P 
DOCKED: ATOM     37  O   UNL d   1      -8.058 -20.882 -17.673 -0.06 -0.16    -0.228 OA
DOCKED: BRANCH  36  38
DOCKED: ATOM     38  O   UNL d   1      -7.867 -21.415 -15.141 -0.52 -0.40    -0.303 OA
DOCKED: ATOM     39  H   UNL d   1      -8.438 -21.511 -14.348 +0.02 +0.17    +0.222 HD
DOCKED: ENDBRANCH  36  38
DOCKED: BRANCH  36  40
DOCKED: ATOM     40  O   UNL d   1     -10.125 -21.603 -16.214 -0.01 -0.09    -0.303 OA
DOCKED: ATOM     41  H   UNL d   1     -10.587 -21.383 -15.375 +0.01 +0.06    +0.222 HD
DOCKED: ENDBRANCH  36  40
DOCKED: ENDBRANCH  35  36
DOCKED: ENDBRANCH   5  35
DOCKED: BRANCH   4  42
DOCKED: ATOM     42  O   UNL d   1      -6.965 -17.530 -15.099 -0.06 -0.16    -0.278 OA
DOCKED: BRANCH  42  43
DOCKED: ATOM     43  P   UNL d   1      -6.703 -16.997 -16.579 -0.06 +0.20    +0.473 P 
DOCKED: ATOM     44  O   UNL d   1      -5.319 -17.117 -17.118 -0.09 -0.11    -0.228 OA
DOCKED: BRANCH  43  45
DOCKED: ATOM     45  O   UNL d   1      -7.802 -17.772 -17.430 -0.04 -0.11    -0.303 OA
DOCKED: ATOM     46  H   UNL d   1      -7.702 -18.741 -17.346 +0.02 +0.12    +0.222 HD
DOCKED: ENDBRANCH  43  45
DOCKED: BRANCH  43  47
DOCKED: ATOM     47  O   UNL d   1      -7.305 -15.512 -16.545 -0.02 -0.06    -0.303 OA
DOCKED: ATOM     48  H   UNL d   1      -7.366 -15.209 -15.616 +0.04 +0.04    +0.222 HD
DOCKED: ENDBRANCH  43  47
DOCKED: ENDBRANCH  42  43
DOCKED: ENDBRANCH   4  42
DOCKED: TORSDOF 24
DOCKED: TER
DOCKED: ENDMDL
________________________________________________________________________________


	BEGINNING GENETIC ALGORITHM DOCKING 92 of 100
Run: 92 Seed: 1300189087 714177235 [ Run 92 of 100 GA/GALS ]
Beginning LAMARCKIAN GENETIC ALGORITHM (LGA), with a maximum of 25000000 energy evaluations.

Final-Value: -17.923


	FINAL GENETIC ALGORITHM DOCKED STATE
	_______________________________________________


Detailed state:  trans -1.710 14.580 -9.570 quatxyzw 0.141642 -0.081320 -0.967543 0.192833 center 0.035 0.082 -0.065 ntor 24 101.4608 14.2016 121.0381 129.2061 -126.8367 -122.1420 -35.5434 -172.2918 102.6619 -86.8877 -27.8405 -177.3613 178.9295 88.2931 11.2333 143.5776 171.6101 -125.9665 28.2467 -19.1406 158.0292 -33.9094 -32.7041 160.1017
State:	 -1.710  14.580  -9.570   0.144 -0.083 -0.986 157.764    101.46   14.20  121.04  129.21 -126.84 -122.14  -35.54 -172.29  102.66  -86.89  -27.84 -177.36  178.93   88.29   11.23  143.58  171.61 -125.97   28.25  -19.14  158.03  -33.91  -32.70  160.10

DOCKED: MODEL       92
DOCKED: USER    Run = 92
DOCKED: USER    DPF = D:/Protein_go_brrr/autodock/final/mut_Y35F/IHP/dock.dpf
DOCKED: USER  
DOCKED: USER    Estimated Free Energy of Binding    =   +2.88 kcal/mol  [=(1)+(2)+(3)-(4)]
DOCKED: USER    
DOCKED: USER    (1) Final Intermolecular Energy     =   -4.28 kcal/mol
DOCKED: USER        vdW + Hbond + desolv Energy     =   -3.99 kcal/mol
DOCKED: USER        Electrostatic Energy            =   -0.29 kcal/mol
DOCKED: USER    (2) Final Total Internal Energy     =  -13.64 kcal/mol
DOCKED: USER    (3) Torsional Free Energy           =   +7.16 kcal/mol
DOCKED: USER    (4) Unbound System's Energy  [=(2)] =  -13.64 kcal/mol
DOCKED: USER    
DOCKED: USER    
DOCKED: USER    NEWDPF move IHP_ideal_opt.pdbqt
DOCKED: USER    NEWDPF about 0.035000 0.082000 -0.065000
DOCKED: USER    NEWDPF tran0 -1.709782 14.580054 -9.570490
DOCKED: USER    NEWDPF quaternion0 0.141642 -0.081320 -0.967543 0.192833
DOCKED: USER    NEWDPF axisangle0 0.144351 -0.082875 -0.986050 157.763698
DOCKED: USER    NEWDPF quat0 0.144351 -0.082875 -0.986050 157.763698
DOCKED: USER    NEWDPF dihe0 101.46 14.20 121.04 129.21 -126.84 -122.14 -35.54 -172.29 102.66 -86.89 -27.84 -177.36 178.93 88.29 11.23 143.58 171.61 -125.97 28.25 -19.14 158.03 -33.91 -32.70 160.10 
DOCKED: USER  keepresnum = 1 
DOCKED: USER  
DOCKED: REMARK  24 active torsions:
DOCKED: REMARK  status: ('A' for Active; 'I' for Inactive)
DOCKED: REMARK    1  A    between atoms: C_1  and  O_7 
DOCKED: REMARK    2  A    between atoms: C_2  and  O_12 
DOCKED: REMARK    3  A    between atoms: C_3  and  O_17 
DOCKED: REMARK    4  A    between atoms: C_4  and  O_22 
DOCKED: REMARK    5  A    between atoms: C_5  and  O_27 
DOCKED: REMARK    6  A    between atoms: C_6  and  O_32 
DOCKED: REMARK    7  A    between atoms: O_7  and  P_8 
DOCKED: REMARK    8  A    between atoms: P_8  and  O_10 
DOCKED: REMARK    9  A    between atoms: P_8  and  O_11 
DOCKED: REMARK   10  A    between atoms: O_12  and  P_13 
DOCKED: REMARK   11  A    between atoms: P_13  and  O_15 
DOCKED: REMARK   12  A    between atoms: P_13  and  O_16 
DOCKED: REMARK   13  A    between atoms: O_17  and  P_18 
DOCKED: REMARK   14  A    between atoms: P_18  and  O_20 
DOCKED: REMARK   15  A    between atoms: P_18  and  O_21 
DOCKED: REMARK   16  A    between atoms: O_22  and  P_23 
DOCKED: REMARK   17  A    between atoms: P_23  and  O_25 
DOCKED: REMARK   18  A    between atoms: P_23  and  O_26 
DOCKED: REMARK   19  A    between atoms: O_27  and  P_28 
DOCKED: REMARK   20  A    between atoms: P_28  and  O_30 
DOCKED: REMARK   21  A    between atoms: P_28  and  O_31 
DOCKED: REMARK   22  A    between atoms: O_32  and  P_33 
DOCKED: REMARK   23  A    between atoms: P_33  and  O_35 
DOCKED: REMARK   24  A    between atoms: P_33  and  O_36 
DOCKED: USER                              x       y       z     vdW  Elec       q    Type
DOCKED: USER                           _______ _______ _______ _____ _____    ______ ____
DOCKED: ROOT
DOCKED: ATOM      1  C   UNL d   1      -2.660  15.997  -9.296 -0.02 -0.04    +0.194 C 
DOCKED: ATOM      2  C   UNL d   1      -1.146  16.215  -9.346 -0.04 -0.03    +0.194 C 
DOCKED: ATOM      3  C   UNL d   1      -0.391  15.130  -8.576 -0.15 -0.04    +0.194 C 
DOCKED: ATOM      4  C   UNL d   1      -0.784  13.714  -8.990 -0.21 -0.04    +0.194 C 
DOCKED: ATOM      5  C   UNL d   1      -2.288  13.484  -9.065 -0.14 -0.05    +0.194 C 
DOCKED: ATOM      6  C   UNL d   1      -3.051  14.600  -9.782 -0.03 -0.04    +0.194 C 
DOCKED: ENDROOT
DOCKED: BRANCH   1   7
DOCKED: ATOM      7  O   UNL d   1      -3.276  16.942 -10.173 -0.00 +0.03    -0.278 OA
DOCKED: BRANCH   7   8
DOCKED: ATOM      8  P   UNL d   1      -3.795  18.322  -9.559 +0.00 -0.06    +0.473 P 
DOCKED: ATOM      9  O   UNL d   1      -5.198  18.678  -9.905 +0.00 +0.02    -0.228 OA
DOCKED: BRANCH   8  10
DOCKED: ATOM     10  O   UNL d   1      -3.557  18.161  -7.990 +0.00 +0.06    -0.303 OA
DOCKED: ATOM     11  H   UNL d   1      -4.020  17.364  -7.669 +0.01 -0.06    +0.222 HD
DOCKED: ENDBRANCH   8  10
DOCKED: BRANCH   8  12
DOCKED: ATOM     12  O   UNL d   1      -2.690  19.392  -9.955 +0.00 +0.03    -0.303 OA
DOCKED: ATOM     13  H   UNL d   1      -1.786  19.008 -10.017 +0.00 -0.02    +0.222 HD
DOCKED: ENDBRANCH   8  12
DOCKED: ENDBRANCH   7   8
DOCKED: ENDBRANCH   1   7
DOCKED: BRANCH   2  14
DOCKED: ATOM     14  O   UNL d   1      -0.716  16.188 -10.713 -0.03 +0.02    -0.278 OA
DOCKED: BRANCH  14  15
DOCKED: ATOM     15  P   UNL d   1      -0.177  17.568 -11.321 +0.00 -0.02    +0.473 P 
DOCKED: ATOM     16  O   UNL d   1       0.962  17.477 -12.288 -0.02 +0.01    -0.228 OA
DOCKED: BRANCH  15  17
DOCKED: ATOM     17  O   UNL d   1      -1.473  18.244 -11.956 -0.00 +0.02    -0.303 OA
DOCKED: ATOM     18  H   UNL d   1      -2.286  17.926 -11.517 +0.00 -0.02    +0.222 HD
DOCKED: ENDBRANCH  15  17
DOCKED: BRANCH  15  19
DOCKED: ATOM     19  O   UNL d   1       0.074  18.490 -10.050 -0.00 +0.01    -0.303 OA
DOCKED: ATOM     20  H   UNL d   1       0.830  18.176  -9.521 +0.03 -0.00    +0.222 HD
DOCKED: ENDBRANCH  15  19
DOCKED: ENDBRANCH  14  15
DOCKED: ENDBRANCH   2  14
DOCKED: BRANCH   6  21
DOCKED: ATOM     21  O   UNL d   1      -4.431  14.421  -9.472 -0.01 +0.06    -0.278 OA
DOCKED: BRANCH  21  22
DOCKED: ATOM     22  P   UNL d   1      -4.900  14.368  -7.948 -0.03 -0.17    +0.473 P 
DOCKED: ATOM     23  O   UNL d   1      -4.287  15.331  -6.988 -0.06 +0.10    -0.228 OA
DOCKED: BRANCH  22  24
DOCKED: ATOM     24  O   UNL d   1      -6.481  14.484  -8.091 -0.01 +0.08    -0.303 OA
DOCKED: ATOM     25  H   UNL d   1      -6.887  14.251  -7.217 +0.03 -0.08    +0.222 HD
DOCKED: ENDBRANCH  22  24
DOCKED: BRANCH  22  26
DOCKED: ATOM     26  O   UNL d   1      -4.711  12.814  -7.604 -0.10 +0.18    -0.303 OA
DOCKED: ATOM     27  H   UNL d   1      -3.763  12.583  -7.670 +0.07 -0.12    +0.222 HD
DOCKED: ENDBRANCH  22  26
DOCKED: ENDBRANCH  21  22
DOCKED: ENDBRANCH   6  21
DOCKED: BRANCH   3  28
DOCKED: ATOM     28  O   UNL d   1       0.987  15.251  -8.906 -0.20 +0.02    -0.278 OA
DOCKED: BRANCH  28  29
DOCKED: ATOM     29  P   UNL d   1       1.870  16.408  -8.259 -0.12 +0.04    +0.473 P 
DOCKED: ATOM     30  O   UNL d   1       3.001  15.952  -7.410 -0.28 -0.09    -0.228 OA
DOCKED: BRANCH  29  31
DOCKED: ATOM     31  O   UNL d   1       2.240  17.244  -9.573 -0.05 -0.02    -0.303 OA
DOCKED: ATOM     32  H   UNL d   1       1.631  16.974 -10.298 +0.05 +0.00    +0.222 HD
DOCKED: ENDBRANCH  29  31
DOCKED: BRANCH  29  33
DOCKED: ATOM     33  O   UNL d   1       0.767  17.319  -7.560 -0.04 +0.01    -0.303 OA
DOCKED: ATOM     34  H   UNL d   1       0.733  18.192  -8.023 +0.04 +0.00    +0.222 HD
DOCKED: ENDBRANCH  29  33
DOCKED: ENDBRANCH  28  29
DOCKED: ENDBRANCH   3  28
DOCKED: BRANCH   5  35
DOCKED: ATOM     35  O   UNL d   1      -2.461  12.296  -9.835 -0.13 +0.05    -0.278 OA
DOCKED: BRANCH  35  36
DOCKED: ATOM     36  P   UNL d   1      -2.687  10.893  -9.110 -0.19 -0.14    +0.473 P 
DOCKED: ATOM     37  O   UNL d   1      -2.058   9.713  -9.779 -0.32 +0.03    -0.228 OA
DOCKED: BRANCH  36  38
DOCKED: ATOM     38  O   UNL d   1      -2.133  11.189  -7.647 -0.21 +0.13    -0.303 OA
DOCKED: ATOM     39  H   UNL d   1      -2.307  12.129  -7.421 +0.12 -0.09    +0.222 HD
DOCKED: ENDBRANCH  36  38
DOCKED: BRANCH  36  40
DOCKED: ATOM     40  O   UNL d   1      -4.266  10.859  -8.922 -0.19 +0.17    -0.303 OA
DOCKED: ATOM     41  H   UNL d   1      -4.518  10.660  -7.993 -0.42 -0.34    +0.222 HD
DOCKED: ENDBRANCH  36  40
DOCKED: ENDBRANCH  35  36
DOCKED: ENDBRANCH   5  35
DOCKED: BRANCH   4  42
DOCKED: ATOM     42  O   UNL d   1      -0.272  12.831  -7.986 -0.14 +0.08    -0.278 OA
DOCKED: BRANCH  42  43
DOCKED: ATOM     43  P   UNL d   1      -0.551  13.164  -6.452 -0.22 -0.23    +0.473 P 
DOCKED: ATOM     44  O   UNL d   1       0.316  14.186  -5.802 -0.34 +0.14    -0.228 OA
DOCKED: BRANCH  43  45
DOCKED: ATOM     45  O   UNL d   1      -2.100  13.529  -6.450 -0.15 +0.19    -0.303 OA
DOCKED: ATOM     46  H   UNL d   1      -2.240  14.497  -6.429 +0.06 -0.17    +0.222 HD
DOCKED: ENDBRANCH  43  45
DOCKED: BRANCH  43  47
DOCKED: ATOM     47  O   UNL d   1      -0.557  11.719  -5.758 -0.67 +0.14    -0.303 OA
DOCKED: ATOM     48  H   UNL d   1      -0.367  11.036  -6.434 +0.11 -0.07    +0.222 HD
DOCKED: ENDBRANCH  43  47
DOCKED: ENDBRANCH  42  43
DOCKED: ENDBRANCH   4  42
DOCKED: TORSDOF 24
DOCKED: TER
DOCKED: ENDMDL
________________________________________________________________________________


	BEGINNING GENETIC ALGORITHM DOCKING 93 of 100
Run: 93 Seed: 1440102004 960672182 [ Run 93 of 100 GA/GALS ]
Beginning LAMARCKIAN GENETIC ALGORITHM (LGA), with a maximum of 25000000 energy evaluations.

Final-Value: -15.236


	FINAL GENETIC ALGORITHM DOCKED STATE
	_______________________________________________


Detailed state:  trans -6.797 0.339 20.699 quatxyzw -0.348612 0.246645 -0.304362 0.851469 center 0.035 0.082 -0.065 ntor 24 119.5979 100.4380 72.8318 99.8504 31.0048 -23.7979 -51.7888 -65.2003 180.0000 116.7599 42.5080 -93.2298 -88.4849 110.4366 -64.3478 -165.0057 7.9645 -67.4610 -140.9608 -12.2994 -165.7662 4.3477 145.4621 173.5327
State:	 -6.797   0.339  20.699  -0.665  0.470 -0.580 63.256    119.60  100.44   72.83   99.85   31.00  -23.80  -51.79  -65.20  180.00  116.76   42.51  -93.23  -88.48  110.44  -64.35 -165.01    7.96  -67.46 -140.96  -12.30 -165.77    4.35  145.46  173.53

DOCKED: MODEL       93
DOCKED: USER    Run = 93
DOCKED: USER    DPF = D:/Protein_go_brrr/autodock/final/mut_Y35F/IHP/dock.dpf
DOCKED: USER  
DOCKED: USER    Estimated Free Energy of Binding    =   +4.58 kcal/mol  [=(1)+(2)+(3)-(4)]
DOCKED: USER    
DOCKED: USER    (1) Final Intermolecular Energy     =   -2.58 kcal/mol
DOCKED: USER        vdW + Hbond + desolv Energy     =   -2.53 kcal/mol
DOCKED: USER        Electrostatic Energy            =   -0.05 kcal/mol
DOCKED: USER    (2) Final Total Internal Energy     =  -12.65 kcal/mol
DOCKED: USER    (3) Torsional Free Energy           =   +7.16 kcal/mol
DOCKED: USER    (4) Unbound System's Energy  [=(2)] =  -12.65 kcal/mol
DOCKED: USER    
DOCKED: USER    
DOCKED: USER    NEWDPF move IHP_ideal_opt.pdbqt
DOCKED: USER    NEWDPF about 0.035000 0.082000 -0.065000
DOCKED: USER    NEWDPF tran0 -6.796829 0.339280 20.698763
DOCKED: USER    NEWDPF quaternion0 -0.348612 0.246645 -0.304362 0.851469
DOCKED: USER    NEWDPF axisangle0 -0.664777 0.470332 -0.580395 63.256375
DOCKED: USER    NEWDPF quat0 -0.664777 0.470332 -0.580395 63.256375
DOCKED: USER    NEWDPF dihe0 119.60 100.44 72.83 99.85 31.00 -23.80 -51.79 -65.20 180.00 116.76 42.51 -93.23 -88.48 110.44 -64.35 -165.01 7.96 -67.46 -140.96 -12.30 -165.77 4.35 145.46 173.53 
DOCKED: USER  keepresnum = 1 
DOCKED: USER  
DOCKED: REMARK  24 active torsions:
DOCKED: REMARK  status: ('A' for Active; 'I' for Inactive)
DOCKED: REMARK    1  A    between atoms: C_1  and  O_7 
DOCKED: REMARK    2  A    between atoms: C_2  and  O_12 
DOCKED: REMARK    3  A    between atoms: C_3  and  O_17 
DOCKED: REMARK    4  A    between atoms: C_4  and  O_22 
DOCKED: REMARK    5  A    between atoms: C_5  and  O_27 
DOCKED: REMARK    6  A    between atoms: C_6  and  O_32 
DOCKED: REMARK    7  A    between atoms: O_7  and  P_8 
DOCKED: REMARK    8  A    between atoms: P_8  and  O_10 
DOCKED: REMARK    9  A    between atoms: P_8  and  O_11 
DOCKED: REMARK   10  A    between atoms: O_12  and  P_13 
DOCKED: REMARK   11  A    between atoms: P_13  and  O_15 
DOCKED: REMARK   12  A    between atoms: P_13  and  O_16 
DOCKED: REMARK   13  A    between atoms: O_17  and  P_18 
DOCKED: REMARK   14  A    between atoms: P_18  and  O_20 
DOCKED: REMARK   15  A    between atoms: P_18  and  O_21 
DOCKED: REMARK   16  A    between atoms: O_22  and  P_23 
DOCKED: REMARK   17  A    between atoms: P_23  and  O_25 
DOCKED: REMARK   18  A    between atoms: P_23  and  O_26 
DOCKED: REMARK   19  A    between atoms: O_27  and  P_28 
DOCKED: REMARK   20  A    between atoms: P_28  and  O_30 
DOCKED: REMARK   21  A    between atoms: P_28  and  O_31 
DOCKED: REMARK   22  A    between atoms: O_32  and  P_33 
DOCKED: REMARK   23  A    between atoms: P_33  and  O_35 
DOCKED: REMARK   24  A    between atoms: P_33  and  O_36 
DOCKED: USER                              x       y       z     vdW  Elec       q    Type
DOCKED: USER                           _______ _______ _______ _____ _____    ______ ____
DOCKED: ROOT
DOCKED: ATOM      1  C   UNL d   1      -5.480  -0.323  21.600 -0.01 +0.00    +0.194 C 
DOCKED: ATOM      2  C   UNL d   1      -5.713  -0.940  20.220 -0.05 +0.01    +0.194 C 
DOCKED: ATOM      3  C   UNL d   1      -7.200  -1.180  19.950 -0.07 +0.02    +0.194 C 
DOCKED: ATOM      4  C   UNL d   1      -8.061   0.060  20.181 +0.04 +0.02    +0.194 C 
DOCKED: ATOM      5  C   UNL d   1      -7.780   0.775  21.496 -0.04 +0.01    +0.194 C 
DOCKED: ATOM      6  C   UNL d   1      -6.290   0.959  21.795 -0.01 +0.00    +0.194 C 
DOCKED: ENDROOT
DOCKED: BRANCH   1   7
DOCKED: ATOM      7  O   UNL d   1      -4.098   0.027  21.704 +0.00 +0.00    -0.278 OA
DOCKED: BRANCH   7   8
DOCKED: ATOM      8  P   UNL d   1      -3.670   1.533  21.388 +0.01 -0.01    +0.473 P 
DOCKED: ATOM      9  O   UNL d   1      -4.422   2.184  20.281 -0.04 -0.00    -0.228 OA
DOCKED: BRANCH   8  10
DOCKED: ATOM     10  O   UNL d   1      -3.835   2.284  22.786 +0.00 +0.01    -0.303 OA
DOCKED: ATOM     11  H   UNL d   1      -4.626   1.947  23.246 +0.01 -0.00    +0.222 HD
DOCKED: ENDBRANCH   8  10
DOCKED: BRANCH   8  12
DOCKED: ATOM     12  O   UNL d   1      -2.090   1.487  21.220 +0.00 +0.01    -0.303 OA
DOCKED: ATOM     13  H   UNL d   1      -1.793   0.838  20.543 +0.02 -0.01    +0.222 HD
DOCKED: ENDBRANCH   8  12
DOCKED: ENDBRANCH   7   8
DOCKED: ENDBRANCH   1   7
DOCKED: BRANCH   2  14
DOCKED: ATOM     14  O   UNL d   1      -5.205  -0.050  19.218 -0.10 -0.01    -0.278 OA
DOCKED: BRANCH  14  15
DOCKED: ATOM     15  P   UNL d   1      -4.037  -0.618  18.282 -0.14 -0.03    +0.473 P 
DOCKED: ATOM     16  O   UNL d   1      -3.727   0.164  17.044 -0.30 +0.02    -0.228 OA
DOCKED: BRANCH  15  17
DOCKED: ATOM     17  O   UNL d   1      -2.785  -0.747  19.259 -0.03 +0.02    -0.303 OA
DOCKED: ATOM     18  H   UNL d   1      -2.878  -0.154  20.029 +0.04 -0.01    +0.222 HD
DOCKED: ENDBRANCH  15  17
DOCKED: BRANCH  15  19
DOCKED: ATOM     19  O   UNL d   1      -4.420  -2.144  18.051 -0.10 +0.03    -0.303 OA
DOCKED: ATOM     20  H   UNL d   1      -5.379  -2.259  17.917 +0.08 -0.01    +0.222 HD
DOCKED: ENDBRANCH  15  19
DOCKED: ENDBRANCH  14  15
DOCKED: ENDBRANCH   2  14
DOCKED: BRANCH   6  21
DOCKED: ATOM     21  O   UNL d   1      -6.187   1.314  23.172 +0.00 -0.00    -0.278 OA
DOCKED: BRANCH  21  22
DOCKED: ATOM     22  P   UNL d   1      -5.986   0.174  24.270 +0.01 -0.00    +0.473 P 
DOCKED: ATOM     23  O   UNL d   1      -6.643  -1.146  24.044 +0.00 +0.00    -0.228 OA
DOCKED: BRANCH  22  24
DOCKED: ATOM     24  O   UNL d   1      -4.400   0.118  24.395 +0.00 +0.01    -0.303 OA
DOCKED: ATOM     25  H   UNL d   1      -4.014   0.290  23.499 +0.00 -0.00    +0.222 HD
DOCKED: ENDBRANCH  22  24
DOCKED: BRANCH  22  26
DOCKED: ATOM     26  O   UNL d   1      -6.397   0.942  25.616 +0.00 +0.00    -0.303 OA
DOCKED: ATOM     27  H   UNL d   1      -6.590   0.284  26.316 +0.00 -0.00    +0.222 HD
DOCKED: ENDBRANCH  22  26
DOCKED: ENDBRANCH  21  22
DOCKED: ENDBRANCH   6  21
DOCKED: BRANCH   3  28
DOCKED: ATOM     28  O   UNL d   1      -7.341  -1.485  18.569 -0.71 -0.08    -0.278 OA
DOCKED: BRANCH  28  29
DOCKED: ATOM     29  P   UNL d   1      -7.845  -2.925  18.111 -0.11 +0.04    +0.473 P 
DOCKED: ATOM     30  O   UNL d   1      -8.197  -3.053  16.673 -0.32 -0.03    -0.228 OA
DOCKED: BRANCH  29  31
DOCKED: ATOM     31  O   UNL d   1      -6.637  -3.827  18.646 -0.06 +0.00    -0.303 OA
DOCKED: ATOM     32  H   UNL d   1      -5.974  -3.240  19.077 +0.05 -0.00    +0.222 HD
DOCKED: ENDBRANCH  29  31
DOCKED: BRANCH  29  33
DOCKED: ATOM     33  O   UNL d   1      -9.001  -3.225  19.164 -0.04 -0.01    -0.303 OA
DOCKED: ATOM     34  H   UNL d   1      -9.012  -2.506  19.842 +0.04 +0.01    +0.222 HD
DOCKED: ENDBRANCH  29  33
DOCKED: ENDBRANCH  28  29
DOCKED: ENDBRANCH   3  28
DOCKED: BRANCH   5  35
DOCKED: ATOM     35  O   UNL d   1      -8.344   2.077  21.358 -0.03 -0.01    -0.278 OA
DOCKED: BRANCH  35  36
DOCKED: ATOM     36  P   UNL d   1      -7.520   3.240  20.642 -0.04 +0.04    +0.473 P 
DOCKED: ATOM     37  O   UNL d   1      -6.980   2.907  19.287 -0.59 -0.07    -0.228 OA
DOCKED: BRANCH  36  38
DOCKED: ATOM     38  O   UNL d   1      -8.570   4.437  20.651 -0.02 -0.01    -0.303 OA
DOCKED: ATOM     39  H   UNL d   1      -8.267   5.125  21.282 +0.02 +0.01    +0.222 HD
DOCKED: ENDBRANCH  36  38
DOCKED: BRANCH  36  40
DOCKED: ATOM     40  O   UNL d   1      -6.465   3.647  21.760 -0.00 -0.01    -0.303 OA
DOCKED: ATOM     41  H   UNL d   1      -5.747   2.981  21.842 +0.02 +0.00    +0.222 HD
DOCKED: ENDBRANCH  36  40
DOCKED: ENDBRANCH  35  36
DOCKED: ENDBRANCH   5  35
DOCKED: BRANCH   4  42
DOCKED: ATOM     42  O   UNL d   1      -9.422  -0.382  20.224 -0.07 -0.02    -0.278 OA
DOCKED: BRANCH  42  43
DOCKED: ATOM     43  P   UNL d   1      -9.868  -1.392  21.374 -0.00 +0.01    +0.473 P 
DOCKED: ATOM     44  O   UNL d   1      -8.803  -2.203  22.028 -0.00 -0.00    -0.228 OA
DOCKED: BRANCH  43  45
DOCKED: ATOM     45  O   UNL d   1     -10.675  -0.451  22.372 -0.00 -0.00    -0.303 OA
DOCKED: ATOM     46  H   UNL d   1     -10.330   0.464  22.358 +0.01 +0.00    +0.222 HD
DOCKED: ENDBRANCH  43  45
DOCKED: BRANCH  43  47
DOCKED: ATOM     47  O   UNL d   1     -11.051  -2.229  20.688 -0.00 -0.00    -0.303 OA
DOCKED: ATOM     48  H   UNL d   1     -10.667  -2.979  20.188 +0.03 -0.00    +0.222 HD
DOCKED: ENDBRANCH  43  47
DOCKED: ENDBRANCH  42  43
DOCKED: ENDBRANCH   4  42
DOCKED: TORSDOF 24
DOCKED: TER
DOCKED: ENDMDL
________________________________________________________________________________


	BEGINNING GENETIC ALGORITHM DOCKING 94 of 100
Run: 94 Seed: 1667873898 1489897592 [ Run 94 of 100 GA/GALS ]
Beginning LAMARCKIAN GENETIC ALGORITHM (LGA), with a maximum of 25000000 energy evaluations.

Final-Value: -17.285


	FINAL GENETIC ALGORITHM DOCKED STATE
	_______________________________________________


Detailed state:  trans 13.285 0.503 8.810 quatxyzw 0.469818 0.479337 -0.475923 0.568335 center 0.035 0.082 -0.065 ntor 24 180.0000 -32.0799 171.5225 15.6972 118.0929 111.3200 -131.0361 9.0073 -13.4488 20.5106 122.1917 134.0312 -119.3821 -159.3955 -162.7821 40.3141 172.4343 -153.1237 50.7585 2.0812 -0.2920 11.2358 175.4828 9.0814
State:	 13.285   0.503   8.810   0.571  0.583 -0.578 110.732    180.00  -32.08  171.52   15.70  118.09  111.32 -131.04    9.01  -13.45   20.51  122.19  134.03 -119.38 -159.40 -162.78   40.31  172.43 -153.12   50.76    2.08   -0.29   11.24  175.48    9.08

DOCKED: MODEL       94
DOCKED: USER    Run = 94
DOCKED: USER    DPF = D:/Protein_go_brrr/autodock/final/mut_Y35F/IHP/dock.dpf
DOCKED: USER  
DOCKED: USER    Estimated Free Energy of Binding    =   +3.46 kcal/mol  [=(1)+(2)+(3)-(4)]
DOCKED: USER    
DOCKED: USER    (1) Final Intermolecular Energy     =   -3.70 kcal/mol
DOCKED: USER        vdW + Hbond + desolv Energy     =   -3.54 kcal/mol
DOCKED: USER        Electrostatic Energy            =   -0.15 kcal/mol
DOCKED: USER    (2) Final Total Internal Energy     =  -13.59 kcal/mol
DOCKED: USER    (3) Torsional Free Energy           =   +7.16 kcal/mol
DOCKED: USER    (4) Unbound System's Energy  [=(2)] =  -13.59 kcal/mol
DOCKED: USER    
DOCKED: USER    
DOCKED: USER    NEWDPF move IHP_ideal_opt.pdbqt
DOCKED: USER    NEWDPF about 0.035000 0.082000 -0.065000
DOCKED: USER    NEWDPF tran0 13.284934 0.503325 8.809673
DOCKED: USER    NEWDPF quaternion0 0.469818 0.479337 -0.475923 0.568335
DOCKED: USER    NEWDPF axisangle0 0.571000 0.582570 -0.578421 110.731645
DOCKED: USER    NEWDPF quat0 0.571000 0.582570 -0.578421 110.731645
DOCKED: USER    NEWDPF dihe0 180.00 -32.08 171.52 15.70 118.09 111.32 -131.04 9.01 -13.45 20.51 122.19 134.03 -119.38 -159.40 -162.78 40.31 172.43 -153.12 50.76 2.08 -0.29 11.24 175.48 9.08 
DOCKED: USER  keepresnum = 1 
DOCKED: USER  
DOCKED: REMARK  24 active torsions:
DOCKED: REMARK  status: ('A' for Active; 'I' for Inactive)
DOCKED: REMARK    1  A    between atoms: C_1  and  O_7 
DOCKED: REMARK    2  A    between atoms: C_2  and  O_12 
DOCKED: REMARK    3  A    between atoms: C_3  and  O_17 
DOCKED: REMARK    4  A    between atoms: C_4  and  O_22 
DOCKED: REMARK    5  A    between atoms: C_5  and  O_27 
DOCKED: REMARK    6  A    between atoms: C_6  and  O_32 
DOCKED: REMARK    7  A    between atoms: O_7  and  P_8 
DOCKED: REMARK    8  A    between atoms: P_8  and  O_10 
DOCKED: REMARK    9  A    between atoms: P_8  and  O_11 
DOCKED: REMARK   10  A    between atoms: O_12  and  P_13 
DOCKED: REMARK   11  A    between atoms: P_13  and  O_15 
DOCKED: REMARK   12  A    between atoms: P_13  and  O_16 
DOCKED: REMARK   13  A    between atoms: O_17  and  P_18 
DOCKED: REMARK   14  A    between atoms: P_18  and  O_20 
DOCKED: REMARK   15  A    between atoms: P_18  and  O_21 
DOCKED: REMARK   16  A    between atoms: O_22  and  P_23 
DOCKED: REMARK   17  A    between atoms: P_23  and  O_25 
DOCKED: REMARK   18  A    between atoms: P_23  and  O_26 
DOCKED: REMARK   19  A    between atoms: O_27  and  P_28 
DOCKED: REMARK   20  A    between atoms: P_28  and  O_30 
DOCKED: REMARK   21  A    between atoms: P_28  and  O_31 
DOCKED: REMARK   22  A    between atoms: O_32  and  P_33 
DOCKED: REMARK   23  A    between atoms: P_33  and  O_35 
DOCKED: REMARK   24  A    between atoms: P_33  and  O_36 
DOCKED: USER                              x       y       z     vdW  Elec       q    Type
DOCKED: USER                           _______ _______ _______ _____ _____    ______ ____
DOCKED: ROOT
DOCKED: ATOM      1  C   UNL d   1      12.690   1.713   9.890 -0.04 +0.19    +0.194 C 
DOCKED: ATOM      2  C   UNL d   1      13.020   0.363  10.528 -0.09 +0.09    +0.194 C 
DOCKED: ATOM      3  C   UNL d   1      12.524  -0.805   9.671 -0.13 +0.07    +0.194 C 
DOCKED: ATOM      4  C   UNL d   1      12.988  -0.724   8.218 -0.19 +0.06    +0.194 C 
DOCKED: ATOM      5  C   UNL d   1      12.783   0.643   7.577 -0.13 +0.09    +0.194 C 
DOCKED: ATOM      6  C   UNL d   1      13.222   1.813   8.459 -0.10 +0.14    +0.194 C 
DOCKED: ENDROOT
DOCKED: BRANCH   1   7
DOCKED: ATOM      7  O   UNL d   1      13.332   2.736  10.655 -0.31 -0.25    -0.278 OA
DOCKED: BRANCH   7   8
DOCKED: ATOM      8  P   UNL d   1      12.753   3.075  12.105 -0.05 +0.35    +0.473 P 
DOCKED: ATOM      9  O   UNL d   1      11.405   3.705  12.115 -0.07 -0.30    -0.228 OA
DOCKED: BRANCH   8  10
DOCKED: ATOM     10  O   UNL d   1      12.800   1.679  12.876 -0.02 -0.12    -0.303 OA
DOCKED: ATOM     11  H   UNL d   1      13.454   1.093  12.451 +0.01 +0.07    +0.222 HD
DOCKED: ENDBRANCH   8  10
DOCKED: BRANCH   8  12
DOCKED: ATOM     12  O   UNL d   1      13.906   3.894  12.829 -0.00 -0.12    -0.303 OA
DOCKED: ATOM     13  H   UNL d   1      14.639   3.324  13.153 +0.01 +0.06    +0.222 HD
DOCKED: ENDBRANCH   8  12
DOCKED: ENDBRANCH   7   8
DOCKED: ENDBRANCH   1   7
DOCKED: BRANCH   2  14
DOCKED: ATOM     14  O   UNL d   1      14.441   0.250  10.674 -0.01 -0.08    -0.278 OA
DOCKED: BRANCH  14  15
DOCKED: ATOM     15  P   UNL d   1      14.975  -0.274  12.090 +0.01 +0.08    +0.473 P 
DOCKED: ATOM     16  O   UNL d   1      15.554   0.753  13.012 +0.00 -0.03    -0.228 OA
DOCKED: BRANCH  15  17
DOCKED: ATOM     17  O   UNL d   1      13.724  -1.033  12.719 -0.00 -0.05    -0.303 OA
DOCKED: ATOM     18  H   UNL d   1      13.592  -1.904  12.297 +0.01 +0.03    +0.222 HD
DOCKED: ENDBRANCH  15  17
DOCKED: BRANCH  15  19
DOCKED: ATOM     19  O   UNL d   1      15.936  -1.489  11.727 +0.00 -0.04    -0.303 OA
DOCKED: ATOM     20  H   UNL d   1      15.543  -2.069  11.048 +0.01 +0.03    +0.222 HD
DOCKED: ENDBRANCH  15  19
DOCKED: ENDBRANCH  14  15
DOCKED: ENDBRANCH   2  14
DOCKED: BRANCH   6  21
DOCKED: ATOM     21  O   UNL d   1      12.662   2.993   7.887 -0.22 -0.33    -0.278 OA
DOCKED: BRANCH  21  22
DOCKED: ATOM     22  P   UNL d   1      13.586   3.972   7.030 -0.12 +0.31    +0.473 P 
DOCKED: ATOM     23  O   UNL d   1      13.518   5.435   7.315 -0.09 -0.14    -0.228 OA
DOCKED: BRANCH  22  24
DOCKED: ATOM     24  O   UNL d   1      15.024   3.319   7.228 -0.03 -0.11    -0.303 OA
DOCKED: ATOM     25  H   UNL d   1      14.959   2.357   7.000 +0.07 +0.08    +0.222 HD
DOCKED: ENDBRANCH  22  24
DOCKED: BRANCH  22  26
DOCKED: ATOM     26  O   UNL d   1      13.225   3.530   5.531 -0.73 -0.18    -0.303 OA
DOCKED: ATOM     27  H   UNL d   1      13.489   2.597   5.399 +0.12 +0.09    +0.222 HD
DOCKED: ENDBRANCH  22  26
DOCKED: ENDBRANCH  21  22
DOCKED: ENDBRANCH   6  21
DOCKED: BRANCH   3  28
DOCKED: ATOM     28  O   UNL d   1      13.109  -1.993  10.188 -0.03 -0.06    -0.278 OA
DOCKED: BRANCH  28  29
DOCKED: ATOM     29  P   UNL d   1      12.186  -3.192  10.686 -0.01 +0.08    +0.473 P 
DOCKED: ATOM     30  O   UNL d   1      10.762  -3.119  10.272 -0.08 -0.03    -0.228 OA
DOCKED: BRANCH  29  31
DOCKED: ATOM     31  O   UNL d   1      13.035  -4.439  10.150 -0.03 -0.07    -0.303 OA
DOCKED: ATOM     32  H   UNL d   1      12.857  -4.550   9.188 +0.05 +0.07    +0.222 HD
DOCKED: ENDBRANCH  29  31
DOCKED: BRANCH  29  33
DOCKED: ATOM     33  O   UNL d   1      12.481  -3.213  12.250 -0.00 -0.03    -0.303 OA
DOCKED: ATOM     34  H   UNL d   1      12.108  -2.393  12.658 +0.01 +0.03    +0.222 HD
DOCKED: ENDBRANCH  29  33
DOCKED: ENDBRANCH  28  29
DOCKED: ENDBRANCH   3  28
DOCKED: BRANCH   5  35
DOCKED: ATOM     35  O   UNL d   1      13.615   0.655   6.419 -0.27 -0.08    -0.278 OA
DOCKED: BRANCH  35  36
DOCKED: ATOM     36  P   UNL d   1      15.169   0.319   6.541 -0.04 +0.11    +0.473 P 
DOCKED: ATOM     37  O   UNL d   1      16.072   1.110   5.649 -0.13 -0.05    -0.228 OA
DOCKED: BRANCH  36  38
DOCKED: ATOM     38  O   UNL d   1      15.429   0.539   8.096 -0.03 -0.07    -0.303 OA
DOCKED: ATOM     39  H   UNL d   1      15.585   1.494   8.264 +0.04 +0.06    +0.222 HD
DOCKED: ENDBRANCH  36  38
DOCKED: BRANCH  36  40
DOCKED: ATOM     40  O   UNL d   1      15.189  -1.262   6.369 -0.10 -0.06    -0.303 OA
DOCKED: ATOM     41  H   UNL d   1      14.313  -1.661   6.569 +0.07 +0.04    +0.222 HD
DOCKED: ENDBRANCH  36  40
DOCKED: ENDBRANCH  35  36
DOCKED: ENDBRANCH   5  35
DOCKED: BRANCH   4  42
DOCKED: ATOM     42  O   UNL d   1      12.196  -1.659   7.478 -0.27 -0.06    -0.278 OA
DOCKED: BRANCH  42  43
DOCKED: ATOM     43  P   UNL d   1      12.837  -3.064   7.077 -0.18 +0.11    +0.473 P 
DOCKED: ATOM     44  O   UNL d   1      13.195  -3.271   5.646 -0.32 -0.04    -0.228 OA
DOCKED: BRANCH  43  45
DOCKED: ATOM     45  O   UNL d   1      14.067  -3.186   8.079 -0.08 -0.08    -0.303 OA
DOCKED: ATOM     46  H   UNL d   1      13.796  -3.002   9.001 +0.05 +0.05    +0.222 HD
DOCKED: ENDBRANCH  43  45
DOCKED: BRANCH  43  47
DOCKED: ATOM     47  O   UNL d   1      11.807  -4.126   7.693 -0.16 -0.11    -0.303 OA
DOCKED: ATOM     48  H   UNL d   1      11.596  -3.872   8.616 +0.08 +0.06    +0.222 HD
DOCKED: ENDBRANCH  43  47
DOCKED: ENDBRANCH  42  43
DOCKED: ENDBRANCH   4  42
DOCKED: TORSDOF 24
DOCKED: TER
DOCKED: ENDMDL
________________________________________________________________________________


	BEGINNING GENETIC ALGORITHM DOCKING 95 of 100
Run: 95 Seed: 33148787 1808738668 [ Run 95 of 100 GA/GALS ]
Beginning LAMARCKIAN GENETIC ALGORITHM (LGA), with a maximum of 25000000 energy evaluations.

Final-Value: -17.927


	FINAL GENETIC ALGORITHM DOCKED STATE
	_______________________________________________


Detailed state:  trans 2.189 -20.277 -6.369 quatxyzw -0.194020 0.660013 -0.414720 -0.595605 center 0.035 0.082 -0.065 ntor 24 180.0000 -2.7043 125.3013 88.6213 21.8098 -57.8616 -40.0373 -32.7089 167.7807 58.5434 105.2382 -180.0000 -118.7464 93.6134 -103.0657 18.3802 156.9223 78.4110 37.4788 -9.4675 -12.8893 -18.9856 -180.0000 26.4192
State:	  2.189 -20.277  -6.369  -0.242  0.822 -0.516 -106.888    180.00   -2.70  125.30   88.62   21.81  -57.86  -40.04  -32.71  167.78   58.54  105.24 -180.00 -118.75   93.61 -103.07   18.38  156.92   78.41   37.48   -9.47  -12.89  -18.99 -180.00   26.42

DOCKED: MODEL       95
DOCKED: USER    Run = 95
DOCKED: USER    DPF = D:/Protein_go_brrr/autodock/final/mut_Y35F/IHP/dock.dpf
DOCKED: USER  
DOCKED: USER    Estimated Free Energy of Binding    =   +3.03 kcal/mol  [=(1)+(2)+(3)-(4)]
DOCKED: USER    
DOCKED: USER    (1) Final Intermolecular Energy     =   -4.13 kcal/mol
DOCKED: USER        vdW + Hbond + desolv Energy     =   -3.78 kcal/mol
DOCKED: USER        Electrostatic Energy            =   -0.35 kcal/mol
DOCKED: USER    (2) Final Total Internal Energy     =  -13.79 kcal/mol
DOCKED: USER    (3) Torsional Free Energy           =   +7.16 kcal/mol
DOCKED: USER    (4) Unbound System's Energy  [=(2)] =  -13.79 kcal/mol
DOCKED: USER    
DOCKED: USER    
DOCKED: USER    NEWDPF move IHP_ideal_opt.pdbqt
DOCKED: USER    NEWDPF about 0.035000 0.082000 -0.065000
DOCKED: USER    NEWDPF tran0 2.189486 -20.276939 -6.368589
DOCKED: USER    NEWDPF quaternion0 -0.194020 0.660013 -0.414720 -0.595605
DOCKED: USER    NEWDPF axisangle0 -0.241536 0.821651 -0.516286 -106.888397
DOCKED: USER    NEWDPF quat0 -0.241536 0.821651 -0.516286 -106.888397
DOCKED: USER    NEWDPF dihe0 180.00 -2.70 125.30 88.62 21.81 -57.86 -40.04 -32.71 167.78 58.54 105.24 -180.00 -118.75 93.61 -103.07 18.38 156.92 78.41 37.48 -9.47 -12.89 -18.99 -180.00 26.42 
DOCKED: USER  keepresnum = 1 
DOCKED: USER  
DOCKED: REMARK  24 active torsions:
DOCKED: REMARK  status: ('A' for Active; 'I' for Inactive)
DOCKED: REMARK    1  A    between atoms: C_1  and  O_7 
DOCKED: REMARK    2  A    between atoms: C_2  and  O_12 
DOCKED: REMARK    3  A    between atoms: C_3  and  O_17 
DOCKED: REMARK    4  A    between atoms: C_4  and  O_22 
DOCKED: REMARK    5  A    between atoms: C_5  and  O_27 
DOCKED: REMARK    6  A    between atoms: C_6  and  O_32 
DOCKED: REMARK    7  A    between atoms: O_7  and  P_8 
DOCKED: REMARK    8  A    between atoms: P_8  and  O_10 
DOCKED: REMARK    9  A    between atoms: P_8  and  O_11 
DOCKED: REMARK   10  A    between atoms: O_12  and  P_13 
DOCKED: REMARK   11  A    between atoms: P_13  and  O_15 
DOCKED: REMARK   12  A    between atoms: P_13  and  O_16 
DOCKED: REMARK   13  A    between atoms: O_17  and  P_18 
DOCKED: REMARK   14  A    between atoms: P_18  and  O_20 
DOCKED: REMARK   15  A    between atoms: P_18  and  O_21 
DOCKED: REMARK   16  A    between atoms: O_22  and  P_23 
DOCKED: REMARK   17  A    between atoms: P_23  and  O_25 
DOCKED: REMARK   18  A    between atoms: P_23  and  O_26 
DOCKED: REMARK   19  A    between atoms: O_27  and  P_28 
DOCKED: REMARK   20  A    between atoms: P_28  and  O_30 
DOCKED: REMARK   21  A    between atoms: P_28  and  O_31 
DOCKED: REMARK   22  A    between atoms: O_32  and  P_33 
DOCKED: REMARK   23  A    between atoms: P_33  and  O_35 
DOCKED: REMARK   24  A    between atoms: P_33  and  O_36 
DOCKED: USER                              x       y       z     vdW  Elec       q    Type
DOCKED: USER                           _______ _______ _______ _____ _____    ______ ____
DOCKED: ROOT
DOCKED: ATOM      1  C   UNL d   1       2.458 -21.983  -6.418 -0.00 -0.03    +0.194 C 
DOCKED: ATOM      2  C   UNL d   1       2.186 -21.397  -5.032 -0.03 -0.04    +0.194 C 
DOCKED: ATOM      3  C   UNL d   1       2.944 -20.086  -4.812 -0.04 -0.04    +0.194 C 
DOCKED: ATOM      4  C   UNL d   1       2.718 -19.066  -5.924 -0.08 -0.06    +0.194 C 
DOCKED: ATOM      5  C   UNL d   1       2.866 -19.636  -7.329 -0.03 -0.05    +0.194 C 
DOCKED: ATOM      6  C   UNL d   1       2.158 -20.977  -7.531 -0.01 -0.05    +0.194 C 
DOCKED: ENDROOT
DOCKED: BRANCH   1   7
DOCKED: ATOM      7  O   UNL d   1       1.587 -23.101  -6.609 -0.00 +0.04    -0.278 OA
DOCKED: BRANCH   7   8
DOCKED: ATOM      8  P   UNL d   1       2.048 -24.525  -6.051 +0.01 -0.04    +0.473 P 
DOCKED: ATOM      9  O   UNL d   1       3.227 -25.120  -6.737 +0.00 +0.01    -0.228 OA
DOCKED: BRANCH   8  10
DOCKED: ATOM     10  O   UNL d   1       2.288 -24.271  -4.494 +0.00 +0.02    -0.303 OA
DOCKED: ATOM     11  H   UNL d   1       1.786 -23.485  -4.210 +0.01 -0.02    +0.222 HD
DOCKED: ENDBRANCH   8  10
DOCKED: BRANCH   8  12
DOCKED: ATOM     12  O   UNL d   1       0.729 -25.412  -6.044 +0.00 +0.02    -0.303 OA
DOCKED: ATOM     13  H   UNL d   1      -0.040 -24.955  -5.634 +0.01 -0.02    +0.222 HD
DOCKED: ENDBRANCH   8  12
DOCKED: ENDBRANCH   7   8
DOCKED: ENDBRANCH   1   7
DOCKED: BRANCH   2  14
DOCKED: ATOM     14  O   UNL d   1       0.782 -21.139  -4.901 -0.08 +0.14    -0.278 OA
DOCKED: BRANCH  14  15
DOCKED: ATOM     15  P   UNL d   1       0.030 -21.867  -3.689 -0.10 -0.08    +0.473 P 
DOCKED: ATOM     16  O   UNL d   1      -1.136 -21.146  -3.091 -0.69 -0.10    -0.228 OA
DOCKED: BRANCH  15  17
DOCKED: ATOM     17  O   UNL d   1      -0.363 -23.294  -4.279 -0.02 +0.04    -0.303 OA
DOCKED: ATOM     18  H   UNL d   1       0.276 -23.582  -4.958 +0.02 -0.03    +0.222 HD
DOCKED: ENDBRANCH  15  17
DOCKED: BRANCH  15  19
DOCKED: ATOM     19  O   UNL d   1       1.193 -22.251  -2.674 -0.03 +0.00    -0.303 OA
DOCKED: ATOM     20  H   UNL d   1       1.942 -21.629  -2.732 +0.03 -0.01    +0.222 HD
DOCKED: ENDBRANCH  15  19
DOCKED: ENDBRANCH  14  15
DOCKED: ENDBRANCH   2  14
DOCKED: BRANCH   6  21
DOCKED: ATOM     21  O   UNL d   1       2.665 -21.532  -8.743 -0.00 +0.04    -0.278 OA
DOCKED: BRANCH  21  22
DOCKED: ATOM     22  P   UNL d   1       1.689 -21.736  -9.989 +0.01 -0.03    +0.473 P 
DOCKED: ATOM     23  O   UNL d   1       0.682 -22.834  -9.923 -0.00 +0.01    -0.228 OA
DOCKED: BRANCH  22  24
DOCKED: ATOM     24  O   UNL d   1       1.075 -20.277 -10.163 -0.01 +0.03    -0.303 OA
DOCKED: ATOM     25  H   UNL d   1       0.833 -19.935  -9.265 +0.05 -0.05    +0.222 HD
DOCKED: ENDBRANCH  22  24
DOCKED: BRANCH  22  26
DOCKED: ATOM     26  O   UNL d   1       2.728 -21.806 -11.208 +0.00 +0.01    -0.303 OA
DOCKED: ATOM     27  H   UNL d   1       2.550 -22.611 -11.736 +0.00 -0.00    +0.222 HD
DOCKED: ENDBRANCH  22  26
DOCKED: ENDBRANCH  21  22
DOCKED: ENDBRANCH   6  21
DOCKED: BRANCH   3  28
DOCKED: ATOM     28  O   UNL d   1       2.424 -19.483  -3.634 -0.07 +0.06    -0.278 OA
DOCKED: BRANCH  28  29
DOCKED: ATOM     29  P   UNL d   1       3.088 -19.779  -2.217 -0.07 -0.05    +0.473 P 
DOCKED: ATOM     30  O   UNL d   1       4.134 -20.833  -2.208 -0.02 +0.02    -0.228 OA
DOCKED: BRANCH  29  31
DOCKED: ATOM     31  O   UNL d   1       3.544 -18.300  -1.808 -0.15 +0.06    -0.303 OA
DOCKED: ATOM     32  H   UNL d   1       3.126 -17.660  -2.429 +0.07 -0.05    +0.222 HD
DOCKED: ENDBRANCH  29  31
DOCKED: BRANCH  29  33
DOCKED: ATOM     33  O   UNL d   1       1.813 -20.022  -1.295 -0.14 -0.02    -0.303 OA
DOCKED: ATOM     34  H   UNL d   1       1.067 -20.344  -1.857 +0.05 +0.03    +0.222 HD
DOCKED: ENDBRANCH  29  33
DOCKED: ENDBRANCH  28  29
DOCKED: ENDBRANCH   3  28
DOCKED: BRANCH   5  35
DOCKED: ATOM     35  O   UNL d   1       2.238 -18.695  -8.197 -0.06 +0.09    -0.278 OA
DOCKED: BRANCH  35  36
DOCKED: ATOM     36  P   UNL d   1       0.773 -18.155  -7.873 -0.19 -0.24    +0.473 P 
DOCKED: ATOM     37  O   UNL d   1       0.021 -17.592  -9.037 -0.30 +0.09    -0.228 OA
DOCKED: BRANCH  36  38
DOCKED: ATOM     38  O   UNL d   1       0.093 -19.433  -7.211 -0.08 +0.28    -0.303 OA
DOCKED: ATOM     39  H   UNL d   1       0.136 -19.350  -6.234 -0.44 -0.32    +0.222 HD
DOCKED: ENDBRANCH  36  38
DOCKED: BRANCH  36  40
DOCKED: ATOM     40  O   UNL d   1       1.034 -17.180  -6.643 -0.30 +0.18    -0.303 OA
DOCKED: ATOM     41  H   UNL d   1       1.984 -16.941  -6.564 -0.21 -0.13    +0.222 HD
DOCKED: ENDBRANCH  36  40
DOCKED: ENDBRANCH  35  36
DOCKED: ENDBRANCH   5  35
DOCKED: BRANCH   4  42
DOCKED: ATOM     42  O   UNL d   1       3.721 -18.056  -5.771 -0.06 +0.08    -0.278 OA
DOCKED: BRANCH  42  43
DOCKED: ATOM     43  P   UNL d   1       3.459 -16.856  -4.754 -0.14 -0.14    +0.473 P 
DOCKED: ATOM     44  O   UNL d   1       4.469 -16.631  -3.683 -0.13 +0.06    -0.228 OA
DOCKED: BRANCH  43  45
DOCKED: ATOM     45  O   UNL d   1       3.252 -15.613  -5.726 -0.24 +0.13    -0.303 OA
DOCKED: ATOM     46  H   UNL d   1       2.837 -15.883  -6.569 -0.31 -0.18    +0.222 HD
DOCKED: ENDBRANCH  43  45
DOCKED: BRANCH  43  47
DOCKED: ATOM     47  O   UNL d   1       1.962 -17.126  -4.247 -0.13 +0.10    -0.303 OA
DOCKED: ATOM     48  H   UNL d   1       1.608 -17.922  -4.695 +0.09 -0.09    +0.222 HD
DOCKED: ENDBRANCH  43  47
DOCKED: ENDBRANCH  42  43
DOCKED: ENDBRANCH   4  42
DOCKED: TORSDOF 24
DOCKED: TER
DOCKED: ENDMDL
________________________________________________________________________________


	BEGINNING GENETIC ALGORITHM DOCKING 96 of 100
Run: 96 Seed: 1406641786 2098171142 [ Run 96 of 100 GA/GALS ]
Beginning LAMARCKIAN GENETIC ALGORITHM (LGA), with a maximum of 25000000 energy evaluations.

Final-Value: -16.803


	FINAL GENETIC ALGORITHM DOCKED STATE
	_______________________________________________


Detailed state:  trans -15.276 -5.774 -9.724 quatxyzw 0.054953 -0.447934 -0.705804 -0.546056 center 0.035 0.082 -0.065 ntor 24 105.7296 120.9714 36.3892 33.6067 5.8585 -91.0187 -86.4292 -24.9395 149.5136 42.4841 171.5511 -92.6658 -49.8011 170.8915 4.7544 41.4523 163.8196 77.3821 52.0171 -6.1582 -60.6792 -6.0864 -179.3902 23.4069
State:	-15.276  -5.774  -9.724   0.066 -0.535 -0.843 -113.806    105.73  120.97   36.39   33.61    5.86  -91.02  -86.43  -24.94  149.51   42.48  171.55  -92.67  -49.80  170.89    4.75   41.45  163.82   77.38   52.02   -6.16  -60.68   -6.09 -179.39   23.41

DOCKED: MODEL       96
DOCKED: USER    Run = 96
DOCKED: USER    DPF = D:/Protein_go_brrr/autodock/final/mut_Y35F/IHP/dock.dpf
DOCKED: USER  
DOCKED: USER    Estimated Free Energy of Binding    =   +4.70 kcal/mol  [=(1)+(2)+(3)-(4)]
DOCKED: USER    
DOCKED: USER    (1) Final Intermolecular Energy     =   -2.46 kcal/mol
DOCKED: USER        vdW + Hbond + desolv Energy     =   -2.46 kcal/mol
DOCKED: USER        Electrostatic Energy            =   -0.00 kcal/mol
DOCKED: USER    (2) Final Total Internal Energy     =  -14.34 kcal/mol
DOCKED: USER    (3) Torsional Free Energy           =   +7.16 kcal/mol
DOCKED: USER    (4) Unbound System's Energy  [=(2)] =  -14.34 kcal/mol
DOCKED: USER    
DOCKED: USER    
DOCKED: USER    NEWDPF move IHP_ideal_opt.pdbqt
DOCKED: USER    NEWDPF about 0.035000 0.082000 -0.065000
DOCKED: USER    NEWDPF tran0 -15.275864 -5.774029 -9.723842
DOCKED: USER    NEWDPF quaternion0 0.054953 -0.447934 -0.705804 -0.546056
DOCKED: USER    NEWDPF axisangle0 0.065596 -0.534688 -0.842500 -113.806350
DOCKED: USER    NEWDPF quat0 0.065596 -0.534688 -0.842500 -113.806350
DOCKED: USER    NEWDPF dihe0 105.73 120.97 36.39 33.61 5.86 -91.02 -86.43 -24.94 149.51 42.48 171.55 -92.67 -49.80 170.89 4.75 41.45 163.82 77.38 52.02 -6.16 -60.68 -6.09 -179.39 23.41 
DOCKED: USER  keepresnum = 1 
DOCKED: USER  
DOCKED: REMARK  24 active torsions:
DOCKED: REMARK  status: ('A' for Active; 'I' for Inactive)
DOCKED: REMARK    1  A    between atoms: C_1  and  O_7 
DOCKED: REMARK    2  A    between atoms: C_2  and  O_12 
DOCKED: REMARK    3  A    between atoms: C_3  and  O_17 
DOCKED: REMARK    4  A    between atoms: C_4  and  O_22 
DOCKED: REMARK    5  A    between atoms: C_5  and  O_27 
DOCKED: REMARK    6  A    between atoms: C_6  and  O_32 
DOCKED: REMARK    7  A    between atoms: O_7  and  P_8 
DOCKED: REMARK    8  A    between atoms: P_8  and  O_10 
DOCKED: REMARK    9  A    between atoms: P_8  and  O_11 
DOCKED: REMARK   10  A    between atoms: O_12  and  P_13 
DOCKED: REMARK   11  A    between atoms: P_13  and  O_15 
DOCKED: REMARK   12  A    between atoms: P_13  and  O_16 
DOCKED: REMARK   13  A    between atoms: O_17  and  P_18 
DOCKED: REMARK   14  A    between atoms: P_18  and  O_20 
DOCKED: REMARK   15  A    between atoms: P_18  and  O_21 
DOCKED: REMARK   16  A    between atoms: O_22  and  P_23 
DOCKED: REMARK   17  A    between atoms: P_23  and  O_25 
DOCKED: REMARK   18  A    between atoms: P_23  and  O_26 
DOCKED: REMARK   19  A    between atoms: O_27  and  P_28 
DOCKED: REMARK   20  A    between atoms: P_28  and  O_30 
DOCKED: REMARK   21  A    between atoms: P_28  and  O_31 
DOCKED: REMARK   22  A    between atoms: O_32  and  P_33 
DOCKED: REMARK   23  A    between atoms: P_33  and  O_35 
DOCKED: REMARK   24  A    between atoms: P_33  and  O_36 
DOCKED: USER                              x       y       z     vdW  Elec       q    Type
DOCKED: USER                           _______ _______ _______ _____ _____    ______ ____
DOCKED: ROOT
DOCKED: ATOM      1  C   UNL d   1     -16.863  -6.347  -9.354 -0.05 +0.00    +0.194 C 
DOCKED: ATOM      2  C   UNL d   1     -16.738  -5.533 -10.643 -0.01 +0.00    +0.194 C 
DOCKED: ATOM      3  C   UNL d   1     -15.851  -4.301 -10.451 -0.01 +0.00    +0.194 C 
DOCKED: ATOM      4  C   UNL d   1     -14.490  -4.628  -9.841 -0.05 +0.01    +0.194 C 
DOCKED: ATOM      5  C   UNL d   1     -14.561  -5.534  -8.618 -0.14 +0.01    +0.194 C 
DOCKED: ATOM      6  C   UNL d   1     -15.496  -6.733  -8.789 -0.16 +0.00    +0.194 C 
DOCKED: ENDROOT
DOCKED: BRANCH   1   7
DOCKED: ATOM      7  O   UNL d   1     -17.557  -7.559  -9.658 -0.03 -0.01    -0.278 OA
DOCKED: BRANCH   7   8
DOCKED: ATOM      8  P   UNL d   1     -19.114  -7.477 -10.004 -0.00 +0.01    +0.473 P 
DOCKED: ATOM      9  O   UNL d   1     -19.686  -6.103 -10.015 -0.00 -0.00    -0.228 OA
DOCKED: BRANCH   8  10
DOCKED: ATOM     10  O   UNL d   1     -19.237  -8.219 -11.411 -0.00 -0.00    -0.303 OA
DOCKED: ATOM     11  H   UNL d   1     -18.597  -7.837 -12.040 +0.01 +0.00    +0.222 HD
DOCKED: ENDBRANCH   8  10
DOCKED: BRANCH   8  12
DOCKED: ATOM     12  O   UNL d   1     -19.811  -8.511  -9.020 -0.01 -0.00    -0.303 OA
DOCKED: ATOM     13  H   UNL d   1     -19.881  -8.178  -8.097 +0.01 +0.00    +0.222 HD
DOCKED: ENDBRANCH   8  12
DOCKED: ENDBRANCH   7   8
DOCKED: ENDBRANCH   1   7
DOCKED: BRANCH   2  14
DOCKED: ATOM     14  O   UNL d   1     -16.159  -6.358 -11.662 -0.02 -0.01    -0.278 OA
DOCKED: BRANCH  14  15
DOCKED: ATOM     15  P   UNL d   1     -16.980  -6.486 -13.031 -0.00 +0.01    +0.473 P 
DOCKED: ATOM     16  O   UNL d   1     -17.143  -7.864 -13.590 -0.01 -0.00    -0.228 OA
DOCKED: BRANCH  15  17
DOCKED: ATOM     17  O   UNL d   1     -18.373  -5.779 -12.716 -0.00 -0.00    -0.303 OA
DOCKED: ATOM     18  H   UNL d   1     -18.830  -6.219 -11.974 +0.00 +0.00    +0.222 HD
DOCKED: ENDBRANCH  15  17
DOCKED: BRANCH  15  19
DOCKED: ATOM     19  O   UNL d   1     -16.298  -5.427 -14.003 -0.00 -0.00    -0.303 OA
DOCKED: ATOM     20  H   UNL d   1     -15.877  -4.701 -13.507 +0.00 +0.00    +0.222 HD
DOCKED: ENDBRANCH  15  19
DOCKED: ENDBRANCH  14  15
DOCKED: ENDBRANCH   2  14
DOCKED: BRANCH   6  21
DOCKED: ATOM     21  O   UNL d   1     -15.718  -7.271  -7.487 -0.17 -0.00    -0.278 OA
DOCKED: BRANCH  21  22
DOCKED: ATOM     22  P   UNL d   1     -16.306  -8.746  -7.329 -0.20 +0.01    +0.473 P 
DOCKED: ATOM     23  O   UNL d   1     -15.899  -9.777  -8.327 -0.31 -0.02    -0.228 OA
DOCKED: BRANCH  22  24
DOCKED: ATOM     24  O   UNL d   1     -15.924  -9.088  -5.822 -0.24 -0.00    -0.303 OA
DOCKED: ATOM     25  H   UNL d   1     -14.938  -9.045  -5.736 +0.02 +0.00    +0.222 HD
DOCKED: ENDBRANCH  22  24
DOCKED: BRANCH  22  26
DOCKED: ATOM     26  O   UNL d   1     -17.879  -8.459  -7.215 -0.05 -0.00    -0.303 OA
DOCKED: ATOM     27  H   UNL d   1     -18.287  -8.546  -8.101 +0.04 +0.00    +0.222 HD
DOCKED: ENDBRANCH  22  26
DOCKED: ENDBRANCH  21  22
DOCKED: ENDBRANCH   6  21
DOCKED: BRANCH   3  28
DOCKED: ATOM     28  O   UNL d   1     -15.569  -3.771 -11.740 -0.00 -0.00    -0.278 OA
DOCKED: BRANCH  28  29
DOCKED: ATOM     29  P   UNL d   1     -16.304  -2.453 -12.247 +0.00 +0.00    +0.473 P 
DOCKED: ATOM     30  O   UNL d   1     -16.984  -1.654 -11.195 +0.00 -0.00    -0.228 OA
DOCKED: BRANCH  29  31
DOCKED: ATOM     31  O   UNL d   1     -15.102  -1.746 -13.032 +0.00 -0.00    -0.303 OA
DOCKED: ATOM     32  H   UNL d   1     -14.260  -1.940 -12.558 +0.00 +0.00    +0.222 HD
DOCKED: ENDBRANCH  29  31
DOCKED: BRANCH  29  33
DOCKED: ATOM     33  O   UNL d   1     -17.215  -3.011 -13.428 +0.00 -0.00    -0.303 OA
DOCKED: ATOM     34  H   UNL d   1     -17.517  -3.923 -13.196 +0.00 +0.00    +0.222 HD
DOCKED: ENDBRANCH  29  33
DOCKED: ENDBRANCH  28  29
DOCKED: ENDBRANCH   3  28
DOCKED: BRANCH   5  35
DOCKED: ATOM     35  O   UNL d   1     -13.243  -6.051  -8.443 -0.27 -0.00    -0.278 OA
DOCKED: BRANCH  35  36
DOCKED: ATOM     36  P   UNL d   1     -12.455  -6.680  -9.680 -0.24 -0.00    +0.473 P 
DOCKED: ATOM     37  O   UNL d   1     -11.450  -7.733  -9.336 -0.35 +0.01    -0.228 OA
DOCKED: BRANCH  36  38
DOCKED: ATOM     38  O   UNL d   1     -13.648  -7.190 -10.602 -0.15 -0.01    -0.303 OA
DOCKED: ATOM     39  H   UNL d   1     -14.020  -6.429 -11.097 +0.05 +0.01    +0.222 HD
DOCKED: ENDBRANCH  36  38
DOCKED: BRANCH  36  40
DOCKED: ATOM     40  O   UNL d   1     -11.916  -5.386 -10.432 -0.15 +0.00    -0.303 OA
DOCKED: ATOM     41  H   UNL d   1     -12.176  -4.560  -9.967 +0.07 +0.01    +0.222 HD
DOCKED: ENDBRANCH  36  40
DOCKED: ENDBRANCH  35  36
DOCKED: ENDBRANCH   5  35
DOCKED: BRANCH   4  42
DOCKED: ATOM     42  O   UNL d   1     -13.918  -3.388  -9.414 -0.02 -0.01    -0.278 OA
DOCKED: BRANCH  42  43
DOCKED: ATOM     43  P   UNL d   1     -13.057  -2.537 -10.452 +0.00 +0.02    +0.473 P 
DOCKED: ATOM     44  O   UNL d   1     -13.487  -1.135 -10.716 -0.00 -0.01    -0.228 OA
DOCKED: BRANCH  43  45
DOCKED: ATOM     45  O   UNL d   1     -11.581  -2.667  -9.871 -0.07 -0.02    -0.303 OA
DOCKED: ATOM     46  H   UNL d   1     -11.072  -3.360 -10.338 +0.05 +0.01    +0.222 HD
DOCKED: ENDBRANCH  43  45
DOCKED: BRANCH  43  47
DOCKED: ATOM     47  O   UNL d   1     -12.986  -3.492 -11.738 -0.01 -0.01    -0.303 OA
DOCKED: ATOM     48  H   UNL d   1     -13.777  -3.342 -12.295 +0.01 +0.00    +0.222 HD
DOCKED: ENDBRANCH  43  47
DOCKED: ENDBRANCH  42  43
DOCKED: ENDBRANCH   4  42
DOCKED: TORSDOF 24
DOCKED: TER
DOCKED: ENDMDL
________________________________________________________________________________


	BEGINNING GENETIC ALGORITHM DOCKING 97 of 100
Run: 97 Seed: 1333497710 502241418 [ Run 97 of 100 GA/GALS ]
Beginning LAMARCKIAN GENETIC ALGORITHM (LGA), with a maximum of 25000000 energy evaluations.

Final-Value: -15.908


	FINAL GENETIC ALGORITHM DOCKED STATE
	_______________________________________________


Detailed state:  trans -16.563 1.644 0.460 quatxyzw 0.281462 0.442204 0.784730 -0.330809 center 0.035 0.082 -0.065 ntor 24 -117.7622 -25.9557 128.3237 32.6974 27.8859 179.4641 -145.7029 3.3847 -70.5514 88.5082 154.6703 -73.3485 -114.6125 89.9495 -53.6028 18.3638 32.9232 29.8712 40.1194 -14.7534 -180.0000 -39.5321 52.8593 -150.7055
State:	-16.563   1.644   0.460   0.298  0.469  0.832 -141.364   -117.76  -25.96  128.32   32.70   27.89  179.46 -145.70    3.38  -70.55   88.51  154.67  -73.35 -114.61   89.95  -53.60   18.36   32.92   29.87   40.12  -14.75 -180.00  -39.53   52.86 -150.71

DOCKED: MODEL       97
DOCKED: USER    Run = 97
DOCKED: USER    DPF = D:/Protein_go_brrr/autodock/final/mut_Y35F/IHP/dock.dpf
DOCKED: USER  
DOCKED: USER    Estimated Free Energy of Binding    =   +3.49 kcal/mol  [=(1)+(2)+(3)-(4)]
DOCKED: USER    
DOCKED: USER    (1) Final Intermolecular Energy     =   -3.67 kcal/mol
DOCKED: USER        vdW + Hbond + desolv Energy     =   -3.48 kcal/mol
DOCKED: USER        Electrostatic Energy            =   -0.19 kcal/mol
DOCKED: USER    (2) Final Total Internal Energy     =  -12.24 kcal/mol
DOCKED: USER    (3) Torsional Free Energy           =   +7.16 kcal/mol
DOCKED: USER    (4) Unbound System's Energy  [=(2)] =  -12.24 kcal/mol
DOCKED: USER    
DOCKED: USER    
DOCKED: USER    NEWDPF move IHP_ideal_opt.pdbqt
DOCKED: USER    NEWDPF about 0.035000 0.082000 -0.065000
DOCKED: USER    NEWDPF tran0 -16.562746 1.643588 0.459959
DOCKED: USER    NEWDPF quaternion0 0.281462 0.442204 0.784730 -0.330809
DOCKED: USER    NEWDPF axisangle0 0.298254 0.468586 0.831548 -141.364235
DOCKED: USER    NEWDPF quat0 0.298254 0.468586 0.831548 -141.364235
DOCKED: USER    NEWDPF dihe0 -117.76 -25.96 128.32 32.70 27.89 179.46 -145.70 3.38 -70.55 88.51 154.67 -73.35 -114.61 89.95 -53.60 18.36 32.92 29.87 40.12 -14.75 -180.00 -39.53 52.86 -150.71 
DOCKED: USER  keepresnum = 1 
DOCKED: USER  
DOCKED: REMARK  24 active torsions:
DOCKED: REMARK  status: ('A' for Active; 'I' for Inactive)
DOCKED: REMARK    1  A    between atoms: C_1  and  O_7 
DOCKED: REMARK    2  A    between atoms: C_2  and  O_12 
DOCKED: REMARK    3  A    between atoms: C_3  and  O_17 
DOCKED: REMARK    4  A    between atoms: C_4  and  O_22 
DOCKED: REMARK    5  A    between atoms: C_5  and  O_27 
DOCKED: REMARK    6  A    between atoms: C_6  and  O_32 
DOCKED: REMARK    7  A    between atoms: O_7  and  P_8 
DOCKED: REMARK    8  A    between atoms: P_8  and  O_10 
DOCKED: REMARK    9  A    between atoms: P_8  and  O_11 
DOCKED: REMARK   10  A    between atoms: O_12  and  P_13 
DOCKED: REMARK   11  A    between atoms: P_13  and  O_15 
DOCKED: REMARK   12  A    between atoms: P_13  and  O_16 
DOCKED: REMARK   13  A    between atoms: O_17  and  P_18 
DOCKED: REMARK   14  A    between atoms: P_18  and  O_20 
DOCKED: REMARK   15  A    between atoms: P_18  and  O_21 
DOCKED: REMARK   16  A    between atoms: O_22  and  P_23 
DOCKED: REMARK   17  A    between atoms: P_23  and  O_25 
DOCKED: REMARK   18  A    between atoms: P_23  and  O_26 
DOCKED: REMARK   19  A    between atoms: O_27  and  P_28 
DOCKED: REMARK   20  A    between atoms: P_28  and  O_30 
DOCKED: REMARK   21  A    between atoms: P_28  and  O_31 
DOCKED: REMARK   22  A    between atoms: O_32  and  P_33 
DOCKED: REMARK   23  A    between atoms: P_33  and  O_35 
DOCKED: REMARK   24  A    between atoms: P_33  and  O_36 
DOCKED: USER                              x       y       z     vdW  Elec       q    Type
DOCKED: USER                           _______ _______ _______ _____ _____    ______ ____
DOCKED: ROOT
DOCKED: ATOM      1  C   UNL d   1     -16.522   3.354   0.222 -0.01 +0.02    +0.194 C 
DOCKED: ATOM      2  C   UNL d   1     -15.799   2.522  -0.839 -0.02 +0.02    +0.194 C 
DOCKED: ATOM      3  C   UNL d   1     -14.975   1.396  -0.210 -0.11 +0.03    +0.194 C 
DOCKED: ATOM      4  C   UNL d   1     -15.780   0.528   0.755 -0.14 +0.04    +0.194 C 
DOCKED: ATOM      5  C   UNL d   1     -16.609   1.320   1.758 -0.07 +0.04    +0.194 C 
DOCKED: ATOM      6  C   UNL d   1     -17.384   2.485   1.139 -0.02 +0.02    +0.194 C 
DOCKED: ENDROOT
DOCKED: BRANCH   1   7
DOCKED: ATOM      7  O   UNL d   1     -17.397   4.265  -0.448 +0.00 -0.02    -0.278 OA
DOCKED: BRANCH   7   8
DOCKED: ATOM      8  P   UNL d   1     -16.785   5.629  -1.013 +0.01 +0.03    +0.473 P 
DOCKED: ATOM      9  O   UNL d   1     -16.228   6.546   0.019 -0.00 -0.01    -0.228 OA
DOCKED: BRANCH   8  10
DOCKED: ATOM     10  O   UNL d   1     -15.700   5.152  -2.081 +0.00 -0.02    -0.303 OA
DOCKED: ATOM     11  H   UNL d   1     -16.137   4.984  -2.937 +0.00 +0.01    +0.222 HD
DOCKED: ENDBRANCH   8  10
DOCKED: BRANCH   8  12
DOCKED: ATOM     12  O   UNL d   1     -17.921   6.238  -1.941 +0.00 -0.01    -0.303 OA
DOCKED: ATOM     13  H   UNL d   1     -18.047   5.734  -2.777 +0.00 +0.01    +0.222 HD
DOCKED: ENDBRANCH   8  12
DOCKED: ENDBRANCH   7   8
DOCKED: ENDBRANCH   1   7
DOCKED: BRANCH   2  14
DOCKED: ATOM     14  O   UNL d   1     -16.769   1.941  -1.719 -0.01 -0.03    -0.278 OA
DOCKED: BRANCH  14  15
DOCKED: ATOM     15  P   UNL d   1     -16.707   2.397  -3.253 +0.00 +0.03    +0.473 P 
DOCKED: ATOM     16  O   UNL d   1     -17.059   1.362  -4.276 -0.01 -0.01    -0.228 OA
DOCKED: BRANCH  15  17
DOCKED: ATOM     17  O   UNL d   1     -17.656   3.675  -3.316 -0.00 -0.01    -0.303 OA
DOCKED: ATOM     18  H   UNL d   1     -17.628   4.175  -2.478 +0.00 +0.01    +0.222 HD
DOCKED: ENDBRANCH  15  17
DOCKED: BRANCH  15  19
DOCKED: ATOM     19  O   UNL d   1     -15.269   3.058  -3.412 -0.01 -0.02    -0.303 OA
DOCKED: ATOM     20  H   UNL d   1     -14.945   3.423  -2.569 +0.02 +0.01    +0.222 HD
DOCKED: ENDBRANCH  15  19
DOCKED: ENDBRANCH  14  15
DOCKED: ENDBRANCH   2  14
DOCKED: BRANCH   6  21
DOCKED: ATOM     21  O   UNL d   1     -17.814   3.313   2.216 -0.01 -0.04    -0.278 OA
DOCKED: BRANCH  21  22
DOCKED: ATOM     22  P   UNL d   1     -16.778   4.304   2.917 +0.02 +0.08    +0.473 P 
DOCKED: ATOM     23  O   UNL d   1     -15.324   3.987   2.819 -0.04 -0.05    -0.228 OA
DOCKED: BRANCH  22  24
DOCKED: ATOM     24  O   UNL d   1     -17.199   5.707   2.295 +0.00 -0.04    -0.303 OA
DOCKED: ATOM     25  H   UNL d   1     -17.437   5.564   1.344 +0.01 +0.02    +0.222 HD
DOCKED: ENDBRANCH  22  24
DOCKED: BRANCH  22  26
DOCKED: ATOM     26  O   UNL d   1     -17.377   4.406   4.400 -0.01 -0.07    -0.303 OA
DOCKED: ATOM     27  H   UNL d   1     -18.131   3.787   4.486 +0.04 +0.04    +0.222 HD
DOCKED: ENDBRANCH  22  26
DOCKED: ENDBRANCH  21  22
DOCKED: ENDBRANCH   6  21
DOCKED: BRANCH   3  28
DOCKED: ATOM     28  O   UNL d   1     -14.574   0.522  -1.258 -0.14 -0.04    -0.278 OA
DOCKED: BRANCH  28  29
DOCKED: ATOM     29  P   UNL d   1     -13.475   0.984  -2.314 -0.14 +0.03    +0.473 P 
DOCKED: ATOM     30  O   UNL d   1     -13.058   2.407  -2.224 -0.10 -0.02    -0.228 OA
DOCKED: BRANCH  29  31
DOCKED: ATOM     31  O   UNL d   1     -12.349  -0.121  -2.046 -0.18 +0.00    -0.303 OA
DOCKED: ATOM     32  H   UNL d   1     -11.703   0.240  -1.396 -0.14 -0.04    +0.222 HD
DOCKED: ENDBRANCH  29  31
DOCKED: BRANCH  29  33
DOCKED: ATOM     33  O   UNL d   1     -14.115   0.508  -3.692 -0.06 -0.02    -0.303 OA
DOCKED: ATOM     34  H   UNL d   1     -14.967   0.988  -3.833 +0.04 +0.02    +0.222 HD
DOCKED: ENDBRANCH  29  33
DOCKED: ENDBRANCH  28  29
DOCKED: ENDBRANCH   3  28
DOCKED: BRANCH   5  35
DOCKED: ATOM     35  O   UNL d   1     -17.571   0.404   2.275 -0.09 -0.06    -0.278 OA
DOCKED: BRANCH  35  36
DOCKED: ATOM     36  P   UNL d   1     -18.681   0.900   3.307 -0.06 +0.08    +0.473 P 
DOCKED: ATOM     37  O   UNL d   1     -19.825   1.655   2.709 -0.03 -0.03    -0.228 OA
DOCKED: BRANCH  36  38
DOCKED: ATOM     38  O   UNL d   1     -19.098  -0.463   4.018 -0.05 -0.07    -0.303 OA
DOCKED: ATOM     39  H   UNL d   1     -20.068  -0.467   4.162 +0.04 +0.03    +0.222 HD
DOCKED: ENDBRANCH  36  38
DOCKED: BRANCH  36  40
DOCKED: ATOM     40  O   UNL d   1     -17.813   1.655   4.405 -0.09 -0.06    -0.303 OA
DOCKED: ATOM     41  H   UNL d   1     -17.157   2.262   3.996 +0.06 +0.05    +0.222 HD
DOCKED: ENDBRANCH  36  40
DOCKED: ENDBRANCH  35  36
DOCKED: ENDBRANCH   5  35
DOCKED: BRANCH   4  42
DOCKED: ATOM     42  O   UNL d   1     -14.836  -0.244   1.505 -0.22 -0.08    -0.278 OA
DOCKED: BRANCH  42  43
DOCKED: ATOM     43  P   UNL d   1     -14.414   0.255   2.960 -0.30 +0.13    +0.473 P 
DOCKED: ATOM     44  O   UNL d   1     -15.392   0.052   4.065 -0.97 -0.11    -0.228 OA
DOCKED: BRANCH  43  45
DOCKED: ATOM     45  O   UNL d   1     -13.016  -0.470   3.186 -0.36 -0.06    -0.303 OA
DOCKED: ATOM     46  H   UNL d   1     -12.287   0.016   2.752 -0.31 -0.02    +0.222 HD
DOCKED: ENDBRANCH  43  45
DOCKED: BRANCH  43  47
DOCKED: ATOM     47  O   UNL d   1     -13.959   1.771   2.709 -0.15 -0.06    -0.303 OA
DOCKED: ATOM     48  H   UNL d   1     -14.650   2.376   3.049 +0.10 +0.05    +0.222 HD
DOCKED: ENDBRANCH  43  47
DOCKED: ENDBRANCH  42  43
DOCKED: ENDBRANCH   4  42
DOCKED: TORSDOF 24
DOCKED: TER
DOCKED: ENDMDL
________________________________________________________________________________


	BEGINNING GENETIC ALGORITHM DOCKING 98 of 100
Run: 98 Seed: 945766425 2131220460 [ Run 98 of 100 GA/GALS ]
Beginning LAMARCKIAN GENETIC ALGORITHM (LGA), with a maximum of 25000000 energy evaluations.

Final-Value: -17.181


	FINAL GENETIC ALGORITHM DOCKED STATE
	_______________________________________________


Detailed state:  trans 8.208 16.665 -10.653 quatxyzw -0.669600 -0.597585 -0.225250 0.379198 center 0.035 0.082 -0.065 ntor 24 -103.7618 -12.6609 -129.8256 -1.5146 -35.9299 -179.7203 -75.4613 -38.2076 86.8593 65.6425 -172.5902 153.7569 72.3092 169.6732 173.9340 -170.6095 116.0054 162.3673 31.8222 -4.6313 167.9314 -13.3905 -13.3726 173.2970
State:	  8.208  16.665 -10.653  -0.724 -0.646 -0.243 135.432   -103.76  -12.66 -129.83   -1.51  -35.93 -179.72  -75.46  -38.21   86.86   65.64 -172.59  153.76   72.31  169.67  173.93 -170.61  116.01  162.37   31.82   -4.63  167.93  -13.39  -13.37  173.30

DOCKED: MODEL       98
DOCKED: USER    Run = 98
DOCKED: USER    DPF = D:/Protein_go_brrr/autodock/final/mut_Y35F/IHP/dock.dpf
DOCKED: USER  
DOCKED: USER    Estimated Free Energy of Binding    =   +4.38 kcal/mol  [=(1)+(2)+(3)-(4)]
DOCKED: USER    
DOCKED: USER    (1) Final Intermolecular Energy     =   -2.78 kcal/mol
DOCKED: USER        vdW + Hbond + desolv Energy     =   -2.79 kcal/mol
DOCKED: USER        Electrostatic Energy            =   +0.01 kcal/mol
DOCKED: USER    (2) Final Total Internal Energy     =  -14.40 kcal/mol
DOCKED: USER    (3) Torsional Free Energy           =   +7.16 kcal/mol
DOCKED: USER    (4) Unbound System's Energy  [=(2)] =  -14.40 kcal/mol
DOCKED: USER    
DOCKED: USER    
DOCKED: USER    NEWDPF move IHP_ideal_opt.pdbqt
DOCKED: USER    NEWDPF about 0.035000 0.082000 -0.065000
DOCKED: USER    NEWDPF tran0 8.207630 16.664601 -10.652784
DOCKED: USER    NEWDPF quaternion0 -0.669600 -0.597585 -0.225250 0.379198
DOCKED: USER    NEWDPF axisangle0 -0.723645 -0.645817 -0.243431 135.432006
DOCKED: USER    NEWDPF quat0 -0.723645 -0.645817 -0.243431 135.432006
DOCKED: USER    NEWDPF dihe0 -103.76 -12.66 -129.83 -1.51 -35.93 -179.72 -75.46 -38.21 86.86 65.64 -172.59 153.76 72.31 169.67 173.93 -170.61 116.01 162.37 31.82 -4.63 167.93 -13.39 -13.37 173.30 
DOCKED: USER  keepresnum = 1 
DOCKED: USER  
DOCKED: REMARK  24 active torsions:
DOCKED: REMARK  status: ('A' for Active; 'I' for Inactive)
DOCKED: REMARK    1  A    between atoms: C_1  and  O_7 
DOCKED: REMARK    2  A    between atoms: C_2  and  O_12 
DOCKED: REMARK    3  A    between atoms: C_3  and  O_17 
DOCKED: REMARK    4  A    between atoms: C_4  and  O_22 
DOCKED: REMARK    5  A    between atoms: C_5  and  O_27 
DOCKED: REMARK    6  A    between atoms: C_6  and  O_32 
DOCKED: REMARK    7  A    between atoms: O_7  and  P_8 
DOCKED: REMARK    8  A    between atoms: P_8  and  O_10 
DOCKED: REMARK    9  A    between atoms: P_8  and  O_11 
DOCKED: REMARK   10  A    between atoms: O_12  and  P_13 
DOCKED: REMARK   11  A    between atoms: P_13  and  O_15 
DOCKED: REMARK   12  A    between atoms: P_13  and  O_16 
DOCKED: REMARK   13  A    between atoms: O_17  and  P_18 
DOCKED: REMARK   14  A    between atoms: P_18  and  O_20 
DOCKED: REMARK   15  A    between atoms: P_18  and  O_21 
DOCKED: REMARK   16  A    between atoms: O_22  and  P_23 
DOCKED: REMARK   17  A    between atoms: P_23  and  O_25 
DOCKED: REMARK   18  A    between atoms: P_23  and  O_26 
DOCKED: REMARK   19  A    between atoms: O_27  and  P_28 
DOCKED: REMARK   20  A    between atoms: P_28  and  O_30 
DOCKED: REMARK   21  A    between atoms: P_28  and  O_31 
DOCKED: REMARK   22  A    between atoms: O_32  and  P_33 
DOCKED: REMARK   23  A    between atoms: P_33  and  O_35 
DOCKED: REMARK   24  A    between atoms: P_33  and  O_36 
DOCKED: USER                              x       y       z     vdW  Elec       q    Type
DOCKED: USER                           _______ _______ _______ _____ _____    ______ ____
DOCKED: ROOT
DOCKED: ATOM      1  C   UNL d   1       8.477  17.691 -12.016 -0.02 -0.00    +0.194 C 
DOCKED: ATOM      2  C   UNL d   1       7.462  16.566 -12.226 -0.06 +0.00    +0.194 C 
DOCKED: ATOM      3  C   UNL d   1       7.949  15.245 -11.626 -0.17 +0.01    +0.194 C 
DOCKED: ATOM      4  C   UNL d   1       8.378  15.369 -10.167 -0.16 +0.01    +0.194 C 
DOCKED: ATOM      5  C   UNL d   1       9.301  16.549  -9.890 -0.09 +0.00    +0.194 C 
DOCKED: ATOM      6  C   UNL d   1       8.847  17.857 -10.541 -0.02 +0.00    +0.194 C 
DOCKED: ENDROOT
DOCKED: BRANCH   1   7
DOCKED: ATOM      7  O   UNL d   1       7.879  18.916 -12.446 -0.00 +0.00    -0.278 OA
DOCKED: BRANCH   7   8
DOCKED: ATOM      8  P   UNL d   1       8.078  19.366 -13.966 -0.00 -0.01    +0.473 P 
DOCKED: ATOM      9  O   UNL d   1       6.819  19.609 -14.722 +0.00 +0.01    -0.228 OA
DOCKED: BRANCH   8  10
DOCKED: ATOM     10  O   UNL d   1       9.011  20.656 -13.869 +0.00 +0.01    -0.303 OA
DOCKED: ATOM     11  H   UNL d   1       9.937  20.403 -14.042 +0.00 -0.01    +0.222 HD
DOCKED: ENDBRANCH   8  10
DOCKED: BRANCH   8  12
DOCKED: ATOM     12  O   UNL d   1       9.064  18.288 -14.589 -0.00 +0.01    -0.303 OA
DOCKED: ATOM     13  H   UNL d   1       9.922  18.228 -14.112 +0.00 -0.01    +0.222 HD
DOCKED: ENDBRANCH   8  12
DOCKED: ENDBRANCH   7   8
DOCKED: ENDBRANCH   1   7
DOCKED: BRANCH   2  14
DOCKED: ATOM     14  O   UNL d   1       6.227  16.926 -11.595 -0.06 -0.02    -0.278 OA
DOCKED: BRANCH  14  15
DOCKED: ATOM     15  P   UNL d   1       4.911  16.859 -12.505 -0.03 +0.01    +0.473 P 
DOCKED: ATOM     16  O   UNL d   1       3.970  18.019 -12.412 -0.02 -0.00    -0.228 OA
DOCKED: BRANCH  15  17
DOCKED: ATOM     17  O   UNL d   1       5.471  16.635 -13.979 -0.01 +0.00    -0.303 OA
DOCKED: ATOM     18  H   UNL d   1       4.971  15.936 -14.443 +0.03 -0.00    +0.222 HD
DOCKED: ENDBRANCH  15  17
DOCKED: BRANCH  15  19
DOCKED: ATOM     19  O   UNL d   1       4.279  15.435 -12.183 -0.14 -0.02    -0.303 OA
DOCKED: ATOM     20  H   UNL d   1       4.885  14.710 -12.421 +0.07 +0.02    +0.222 HD
DOCKED: ENDBRANCH  15  19
DOCKED: ENDBRANCH  14  15
DOCKED: ENDBRANCH   2  14
DOCKED: BRANCH   6  21
DOCKED: ATOM     21  O   UNL d   1       9.956  18.752 -10.487 -0.00 +0.01    -0.278 OA
DOCKED: BRANCH  21  22
DOCKED: ATOM     22  P   UNL d   1      11.279  18.425 -11.316 +0.00 -0.03    +0.473 P 
DOCKED: ATOM     23  O   UNL d   1      12.566  19.019 -10.852 -0.00 +0.02    -0.228 OA
DOCKED: BRANCH  22  24
DOCKED: ATOM     24  O   UNL d   1      11.254  16.834 -11.355 -0.00 +0.02    -0.303 OA
DOCKED: ATOM     25  H   UNL d   1      11.900  16.499 -10.682 +0.03 -0.02    +0.222 HD
DOCKED: ENDBRANCH  22  24
DOCKED: BRANCH  22  26
DOCKED: ATOM     26  O   UNL d   1      10.829  18.800 -12.808 -0.00 +0.01    -0.303 OA
DOCKED: ATOM     27  H   UNL d   1       9.938  19.205 -12.783 +0.00 -0.01    +0.222 HD
DOCKED: ENDBRANCH  22  26
DOCKED: ENDBRANCH  21  22
DOCKED: ENDBRANCH   6  21
DOCKED: BRANCH   3  28
DOCKED: ATOM     28  O   UNL d   1       6.847  14.346 -11.620 -0.23 -0.03    -0.278 OA
DOCKED: BRANCH  28  29
DOCKED: ATOM     29  P   UNL d   1       6.673  13.279 -12.789 -0.22 +0.04    +0.473 P 
DOCKED: ATOM     30  O   UNL d   1       5.739  12.160 -12.501 -0.51 -0.04    -0.228 OA
DOCKED: BRANCH  29  31
DOCKED: ATOM     31  O   UNL d   1       6.289  14.252 -14.000 -0.08 -0.00    -0.303 OA
DOCKED: ATOM     32  H   UNL d   1       5.908  15.080 -13.629 +0.06 +0.00    +0.222 HD
DOCKED: ENDBRANCH  29  31
DOCKED: BRANCH  29  33
DOCKED: ATOM     33  O   UNL d   1       8.182  12.890 -13.114 -0.11 -0.02    -0.303 OA
DOCKED: ATOM     34  H   UNL d   1       8.748  13.120 -12.337 +0.08 +0.01    +0.222 HD
DOCKED: ENDBRANCH  29  33
DOCKED: ENDBRANCH  28  29
DOCKED: ENDBRANCH   3  28
DOCKED: BRANCH   5  35
DOCKED: ATOM     35  O   UNL d   1       9.263  16.748  -8.478 -0.11 -0.02    -0.278 OA
DOCKED: BRANCH  35  36
DOCKED: ATOM     36  P   UNL d   1      10.586  16.573  -7.605 -0.07 -0.03    +0.473 P 
DOCKED: ATOM     37  O   UNL d   1      10.562  17.228  -6.260 -0.09 +0.02    -0.228 OA
DOCKED: BRANCH  36  38
DOCKED: ATOM     38  O   UNL d   1      10.739  14.989  -7.559 -0.23 +0.02    -0.303 OA
DOCKED: ATOM     39  H   UNL d   1      10.183  14.592  -8.264 +0.11 -0.01    +0.222 HD
DOCKED: ENDBRANCH  36  38
DOCKED: BRANCH  36  40
DOCKED: ATOM     40  O   UNL d   1      11.724  17.038  -8.614 -0.02 +0.04    -0.303 OA
DOCKED: ATOM     41  H   UNL d   1      11.372  17.641  -9.306 +0.03 -0.02    +0.222 HD
DOCKED: ENDBRANCH  36  40
DOCKED: ENDBRANCH  35  36
DOCKED: ENDBRANCH   5  35
DOCKED: BRANCH   4  42
DOCKED: ATOM     42  O   UNL d   1       9.108  14.180  -9.846 -0.25 +0.01    -0.278 OA
DOCKED: BRANCH  42  43
DOCKED: ATOM     43  P   UNL d   1      10.459  13.868 -10.636 -0.16 -0.05    +0.473 P 
DOCKED: ATOM     44  O   UNL d   1      10.850  12.439 -10.788 -0.31 +0.05    -0.228 OA
DOCKED: BRANCH  43  45
DOCKED: ATOM     45  O   UNL d   1      10.242  14.634 -12.014 -0.06 +0.02    -0.303 OA
DOCKED: ATOM     46  H   UNL d   1      10.878  15.370 -12.117 +0.04 -0.01    +0.222 HD
DOCKED: ENDBRANCH  43  45
DOCKED: BRANCH  43  47
DOCKED: ATOM     47  O   UNL d   1      11.535  14.806  -9.907 -0.06 +0.04    -0.303 OA
DOCKED: ATOM     48  H   UNL d   1      11.079  15.585  -9.527 +0.07 -0.02    +0.222 HD
DOCKED: ENDBRANCH  43  47
DOCKED: ENDBRANCH  42  43
DOCKED: ENDBRANCH   4  42
DOCKED: TORSDOF 24
DOCKED: TER
DOCKED: ENDMDL
________________________________________________________________________________


	BEGINNING GENETIC ALGORITHM DOCKING 99 of 100
Run: 99 Seed: 969971177 1458281365 [ Run 99 of 100 GA/GALS ]
Beginning LAMARCKIAN GENETIC ALGORITHM (LGA), with a maximum of 25000000 energy evaluations.

Final-Value: -18.645


	FINAL GENETIC ALGORITHM DOCKED STATE
	_______________________________________________


Detailed state:  trans -17.706 -7.271 12.654 quatxyzw 0.111667 -0.836656 0.112519 -0.524286 center 0.035 0.082 -0.065 ntor 24 93.7706 86.5912 135.1782 23.3589 147.6654 164.2147 -101.2826 10.5192 74.2116 143.2056 31.4973 177.8182 136.2408 -175.6722 113.5386 23.9380 112.8499 170.0179 41.5451 -1.6112 -54.3164 -20.2158 160.3941 -8.8268
State:	-17.706  -7.271  12.654   0.131 -0.983  0.132 -116.760     93.77   86.59  135.18   23.36  147.67  164.21 -101.28   10.52   74.21  143.21   31.50  177.82  136.24 -175.67  113.54   23.94  112.85  170.02   41.55   -1.61  -54.32  -20.22  160.39   -8.83

DOCKED: MODEL       99
DOCKED: USER    Run = 99
DOCKED: USER    DPF = D:/Protein_go_brrr/autodock/final/mut_Y35F/IHP/dock.dpf
DOCKED: USER  
DOCKED: USER    Estimated Free Energy of Binding    =   +2.55 kcal/mol  [=(1)+(2)+(3)-(4)]
DOCKED: USER    
DOCKED: USER    (1) Final Intermolecular Energy     =   -4.60 kcal/mol
DOCKED: USER        vdW + Hbond + desolv Energy     =   -4.10 kcal/mol
DOCKED: USER        Electrostatic Energy            =   -0.50 kcal/mol
DOCKED: USER    (2) Final Total Internal Energy     =  -14.04 kcal/mol
DOCKED: USER    (3) Torsional Free Energy           =   +7.16 kcal/mol
DOCKED: USER    (4) Unbound System's Energy  [=(2)] =  -14.04 kcal/mol
DOCKED: USER    
DOCKED: USER    
DOCKED: USER    NEWDPF move IHP_ideal_opt.pdbqt
DOCKED: USER    NEWDPF about 0.035000 0.082000 -0.065000
DOCKED: USER    NEWDPF tran0 -17.705710 -7.270912 12.653593
DOCKED: USER    NEWDPF quaternion0 0.111667 -0.836656 0.112519 -0.524286
DOCKED: USER    NEWDPF axisangle0 0.131135 -0.982519 0.132136 -116.759600
DOCKED: USER    NEWDPF quat0 0.131135 -0.982519 0.132136 -116.759600
DOCKED: USER    NEWDPF dihe0 93.77 86.59 135.18 23.36 147.67 164.21 -101.28 10.52 74.21 143.21 31.50 177.82 136.24 -175.67 113.54 23.94 112.85 170.02 41.55 -1.61 -54.32 -20.22 160.39 -8.83 
DOCKED: USER  keepresnum = 1 
DOCKED: USER  
DOCKED: REMARK  24 active torsions:
DOCKED: REMARK  status: ('A' for Active; 'I' for Inactive)
DOCKED: REMARK    1  A    between atoms: C_1  and  O_7 
DOCKED: REMARK    2  A    between atoms: C_2  and  O_12 
DOCKED: REMARK    3  A    between atoms: C_3  and  O_17 
DOCKED: REMARK    4  A    between atoms: C_4  and  O_22 
DOCKED: REMARK    5  A    between atoms: C_5  and  O_27 
DOCKED: REMARK    6  A    between atoms: C_6  and  O_32 
DOCKED: REMARK    7  A    between atoms: O_7  and  P_8 
DOCKED: REMARK    8  A    between atoms: P_8  and  O_10 
DOCKED: REMARK    9  A    between atoms: P_8  and  O_11 
DOCKED: REMARK   10  A    between atoms: O_12  and  P_13 
DOCKED: REMARK   11  A    between atoms: P_13  and  O_15 
DOCKED: REMARK   12  A    between atoms: P_13  and  O_16 
DOCKED: REMARK   13  A    between atoms: O_17  and  P_18 
DOCKED: REMARK   14  A    between atoms: P_18  and  O_20 
DOCKED: REMARK   15  A    between atoms: P_18  and  O_21 
DOCKED: REMARK   16  A    between atoms: O_22  and  P_23 
DOCKED: REMARK   17  A    between atoms: P_23  and  O_25 
DOCKED: REMARK   18  A    between atoms: P_23  and  O_26 
DOCKED: REMARK   19  A    between atoms: O_27  and  P_28 
DOCKED: REMARK   20  A    between atoms: P_28  and  O_30 
DOCKED: REMARK   21  A    between atoms: P_28  and  O_31 
DOCKED: REMARK   22  A    between atoms: O_32  and  P_33 
DOCKED: REMARK   23  A    between atoms: P_33  and  O_35 
DOCKED: REMARK   24  A    between atoms: P_33  and  O_36 
DOCKED: USER                              x       y       z     vdW  Elec       q    Type
DOCKED: USER                           _______ _______ _______ _____ _____    ______ ____
DOCKED: ROOT
DOCKED: ATOM      1  C   UNL d   1     -18.642  -8.442  13.511 +0.00 -0.01    +0.194 C 
DOCKED: ATOM      2  C   UNL d   1     -17.552  -9.007  12.599 -0.01 -0.01    +0.194 C 
DOCKED: ATOM      3  C   UNL d   1     -17.510  -8.284  11.251 -0.05 -0.02    +0.194 C 
DOCKED: ATOM      4  C   UNL d   1     -17.420  -6.766  11.386 -0.06 -0.04    +0.194 C 
DOCKED: ATOM      5  C   UNL d   1     -18.415  -6.171  12.374 -0.02 -0.03    +0.194 C 
DOCKED: ATOM      6  C   UNL d   1     -18.502  -6.931  13.700 +0.00 -0.03    +0.194 C 
DOCKED: ENDROOT
DOCKED: BRANCH   1   7
DOCKED: ATOM      7  O   UNL d   1     -18.503  -9.047  14.799 +0.00 +0.01    -0.278 OA
DOCKED: BRANCH   7   8
DOCKED: ATOM      8  P   UNL d   1     -19.112 -10.506  15.023 +0.00 -0.01    +0.473 P 
DOCKED: ATOM      9  O   UNL d   1     -19.091 -10.991  16.430 +0.00 +0.00    -0.228 OA
DOCKED: BRANCH   8  10
DOCKED: ATOM     10  O   UNL d   1     -20.584 -10.409  14.414 -0.00 +0.01    -0.303 OA
DOCKED: ATOM     11  H   UNL d   1     -21.110  -9.771  14.931 +0.00 -0.01    +0.222 HD
DOCKED: ENDBRANCH   8  10
DOCKED: BRANCH   8  12
DOCKED: ATOM     12  O   UNL d   1     -18.374 -11.429  13.960 -0.00 -0.00    -0.303 OA
DOCKED: ATOM     13  H   UNL d   1     -17.413 -11.234  13.883 +0.02 +0.01    +0.222 HD
DOCKED: ENDBRANCH   8  12
DOCKED: ENDBRANCH   7   8
DOCKED: ENDBRANCH   1   7
DOCKED: BRANCH   2  14
DOCKED: ATOM     14  O   UNL d   1     -16.280  -8.852  13.241 -0.02 +0.01    -0.278 OA
DOCKED: BRANCH  14  15
DOCKED: ATOM     15  P   UNL d   1     -15.349 -10.153  13.309 -0.04 +0.13    +0.473 P 
DOCKED: ATOM     16  O   UNL d   1     -14.962 -10.632  14.673 -0.02 -0.04    -0.228 OA
DOCKED: BRANCH  15  17
DOCKED: ATOM     17  O   UNL d   1     -16.151 -11.248  12.475 -0.03 -0.05    -0.303 OA
DOCKED: ATOM     18  H   UNL d   1     -16.568 -10.852  11.685 +0.05 +0.03    +0.222 HD
DOCKED: ENDBRANCH  15  17
DOCKED: BRANCH  15  19
DOCKED: ATOM     19  O   UNL d   1     -14.139  -9.828  12.328 -0.38 -0.42    -0.303 OA
DOCKED: ATOM     20  H   UNL d   1     -14.433  -9.320  11.549 +0.06 +0.24    +0.222 HD
DOCKED: ENDBRANCH  15  19
DOCKED: ENDBRANCH  14  15
DOCKED: ENDBRANCH   2  14
DOCKED: BRANCH   6  21
DOCKED: ATOM     21  O   UNL d   1     -19.684  -6.480  14.357 +0.00 +0.02    -0.278 OA
DOCKED: BRANCH  21  22
DOCKED: ATOM     22  P   UNL d   1     -19.809  -6.615  15.942 +0.01 -0.03    +0.473 P 
DOCKED: ATOM     23  O   UNL d   1     -20.511  -5.531  16.688 +0.00 +0.01    -0.228 OA
DOCKED: BRANCH  22  24
DOCKED: ATOM     24  O   UNL d   1     -20.457  -8.060  16.095 +0.00 +0.01    -0.303 OA
DOCKED: ATOM     25  H   UNL d   1     -19.733  -8.732  16.022 +0.00 -0.01    +0.222 HD
DOCKED: ENDBRANCH  22  24
DOCKED: BRANCH  22  26
DOCKED: ATOM     26  O   UNL d   1     -18.287  -6.888  16.366 +0.00 +0.03    -0.303 OA
DOCKED: ATOM     27  H   UNL d   1     -17.753  -7.052  15.562 +0.01 -0.03    +0.222 HD
DOCKED: ENDBRANCH  22  26
DOCKED: ENDBRANCH  21  22
DOCKED: ENDBRANCH   6  21
DOCKED: BRANCH   3  28
DOCKED: ATOM     28  O   UNL d   1     -16.312  -8.675  10.593 -0.09 -0.00    -0.278 OA
DOCKED: BRANCH  28  29
DOCKED: ATOM     29  P   UNL d   1     -16.302  -9.942   9.627 -0.23 +0.03    +0.473 P 
DOCKED: ATOM     30  O   UNL d   1     -17.589 -10.676   9.520 -0.18 +0.00    -0.228 OA
DOCKED: BRANCH  29  31
DOCKED: ATOM     31  O   UNL d   1     -15.735  -9.270   8.290 -0.28 +0.05    -0.303 OA
DOCKED: ATOM     32  H   UNL d   1     -16.254  -8.453   8.105 -0.32 -0.13    +0.222 HD
DOCKED: ENDBRANCH  29  31
DOCKED: BRANCH  29  33
DOCKED: ATOM     33  O   UNL d   1     -15.049 -10.763  10.166 -0.20 -0.13    -0.303 OA
DOCKED: ATOM     34  H   UNL d   1     -15.265 -11.129  11.059 +0.06 +0.09    +0.222 HD
DOCKED: ENDBRANCH  29  33
DOCKED: ENDBRANCH  28  29
DOCKED: ENDBRANCH   3  28
DOCKED: BRANCH   5  35
DOCKED: ATOM     35  O   UNL d   1     -17.930  -4.863  12.672 -0.04 +0.08    -0.278 OA
DOCKED: BRANCH  35  36
DOCKED: ATOM     36  P   UNL d   1     -16.588  -4.675  13.514 -0.03 -0.29    +0.473 P 
DOCKED: ATOM     37  O   UNL d   1     -15.889  -3.365  13.329 -0.21 +0.17    -0.228 OA
DOCKED: BRANCH  36  38
DOCKED: ATOM     38  O   UNL d   1     -17.095  -4.941  15.000 -0.04 +0.09    -0.303 OA
DOCKED: ATOM     39  H   UNL d   1     -18.041  -5.204  14.974 +0.02 -0.04    +0.222 HD
DOCKED: ENDBRANCH  36  38
DOCKED: BRANCH  36  40
DOCKED: ATOM     40  O   UNL d   1     -15.770  -5.988  13.147 -0.02 +0.32    -0.303 OA
DOCKED: ATOM     41  H   UNL d   1     -15.071  -5.807  12.480 -0.30 -0.49    +0.222 HD
DOCKED: ENDBRANCH  36  40
DOCKED: ENDBRANCH  35  36
DOCKED: ENDBRANCH   5  35
DOCKED: BRANCH   4  42
DOCKED: ATOM     42  O   UNL d   1     -17.725  -6.217  10.100 -0.09 +0.05    -0.278 OA
DOCKED: BRANCH  42  43
DOCKED: ATOM     43  P   UNL d   1     -16.630  -5.321   9.364 -0.24 -0.12    +0.473 P 
DOCKED: ATOM     44  O   UNL d   1     -17.115  -4.167   8.557 -0.48 -0.01    -0.228 OA
DOCKED: BRANCH  43  45
DOCKED: ATOM     45  O   UNL d   1     -15.652  -4.918  10.553 -0.12 +0.28    -0.303 OA
DOCKED: ATOM     46  H   UNL d   1     -16.150  -4.688  11.363 -0.05 -0.20    +0.222 HD
DOCKED: ENDBRANCH  43  45
DOCKED: BRANCH  43  47
DOCKED: ATOM     47  O   UNL d   1     -15.749  -6.398   8.569 -0.57 +0.06    -0.303 OA
DOCKED: ATOM     48  H   UNL d   1     -16.073  -7.299   8.780 -0.23 -0.07    +0.222 HD
DOCKED: ENDBRANCH  43  47
DOCKED: ENDBRANCH  42  43
DOCKED: ENDBRANCH   4  42
DOCKED: TORSDOF 24
DOCKED: TER
DOCKED: ENDMDL
________________________________________________________________________________


	BEGINNING GENETIC ALGORITHM DOCKING 100 of 100
Run: 100 Seed: 1550991092 1480541322 [ Run 100 of 100 GA/GALS ]
Beginning LAMARCKIAN GENETIC ALGORITHM (LGA), with a maximum of 25000000 energy evaluations.

Final-Value: -21.125


	FINAL GENETIC ALGORITHM DOCKED STATE
	_______________________________________________


Detailed state:  trans 6.066 -13.932 5.096 quatxyzw 0.560430 0.757333 0.095290 0.321380 center 0.035 0.082 -0.065 ntor 24 -127.1904 24.6169 165.5700 16.8002 25.2960 -166.3005 33.7880 -116.3524 -55.8690 -43.8375 109.0875 176.3414 -150.1466 74.5370 135.2904 -96.8102 -172.3909 -141.6778 25.5944 -33.1595 -25.3891 40.0599 9.0560 -29.8452
State:	  6.066 -13.932   5.096   0.592  0.800  0.101 142.507   -127.19   24.62  165.57   16.80   25.30 -166.30   33.79 -116.35  -55.87  -43.84  109.09  176.34 -150.15   74.54  135.29  -96.81 -172.39 -141.68   25.59  -33.16  -25.39   40.06    9.06  -29.85

DOCKED: MODEL      100
DOCKED: USER    Run = 100
DOCKED: USER    DPF = D:/Protein_go_brrr/autodock/final/mut_Y35F/IHP/dock.dpf
DOCKED: USER  
DOCKED: USER    Estimated Free Energy of Binding    =   +0.54 kcal/mol  [=(1)+(2)+(3)-(4)]
DOCKED: USER    
DOCKED: USER    (1) Final Intermolecular Energy     =   -6.62 kcal/mol
DOCKED: USER        vdW + Hbond + desolv Energy     =   -6.43 kcal/mol
DOCKED: USER        Electrostatic Energy            =   -0.19 kcal/mol
DOCKED: USER    (2) Final Total Internal Energy     =  -14.51 kcal/mol
DOCKED: USER    (3) Torsional Free Energy           =   +7.16 kcal/mol
DOCKED: USER    (4) Unbound System's Energy  [=(2)] =  -14.51 kcal/mol
DOCKED: USER    
DOCKED: USER    
DOCKED: USER    NEWDPF move IHP_ideal_opt.pdbqt
DOCKED: USER    NEWDPF about 0.035000 0.082000 -0.065000
DOCKED: USER    NEWDPF tran0 6.066085 -13.931973 5.095613
DOCKED: USER    NEWDPF quaternion0 0.560430 0.757333 0.095290 0.321380
DOCKED: USER    NEWDPF axisangle0 0.591826 0.799760 0.100629 142.507144
DOCKED: USER    NEWDPF quat0 0.591826 0.799760 0.100629 142.507144
DOCKED: USER    NEWDPF dihe0 -127.19 24.62 165.57 16.80 25.30 -166.30 33.79 -116.35 -55.87 -43.84 109.09 176.34 -150.15 74.54 135.29 -96.81 -172.39 -141.68 25.59 -33.16 -25.39 40.06 9.06 -29.85 
DOCKED: USER  keepresnum = 1 
DOCKED: USER  
DOCKED: REMARK  24 active torsions:
DOCKED: REMARK  status: ('A' for Active; 'I' for Inactive)
DOCKED: REMARK    1  A    between atoms: C_1  and  O_7 
DOCKED: REMARK    2  A    between atoms: C_2  and  O_12 
DOCKED: REMARK    3  A    between atoms: C_3  and  O_17 
DOCKED: REMARK    4  A    between atoms: C_4  and  O_22 
DOCKED: REMARK    5  A    between atoms: C_5  and  O_27 
DOCKED: REMARK    6  A    between atoms: C_6  and  O_32 
DOCKED: REMARK    7  A    between atoms: O_7  and  P_8 
DOCKED: REMARK    8  A    between atoms: P_8  and  O_10 
DOCKED: REMARK    9  A    between atoms: P_8  and  O_11 
DOCKED: REMARK   10  A    between atoms: O_12  and  P_13 
DOCKED: REMARK   11  A    between atoms: P_13  and  O_15 
DOCKED: REMARK   12  A    between atoms: P_13  and  O_16 
DOCKED: REMARK   13  A    between atoms: O_17  and  P_18 
DOCKED: REMARK   14  A    between atoms: P_18  and  O_20 
DOCKED: REMARK   15  A    between atoms: P_18  and  O_21 
DOCKED: REMARK   16  A    between atoms: O_22  and  P_23 
DOCKED: REMARK   17  A    between atoms: P_23  and  O_25 
DOCKED: REMARK   18  A    between atoms: P_23  and  O_26 
DOCKED: REMARK   19  A    between atoms: O_27  and  P_28 
DOCKED: REMARK   20  A    between atoms: P_28  and  O_30 
DOCKED: REMARK   21  A    between atoms: P_28  and  O_31 
DOCKED: REMARK   22  A    between atoms: O_32  and  P_33 
DOCKED: REMARK   23  A    between atoms: P_33  and  O_35 
DOCKED: REMARK   24  A    between atoms: P_33  and  O_36 
DOCKED: USER                              x       y       z     vdW  Elec       q    Type
DOCKED: USER                           _______ _______ _______ _____ _____    ______ ____
DOCKED: ROOT
DOCKED: ATOM      1  C   UNL d   1       4.750 -12.860   5.418 -0.20 -0.06    +0.194 C 
DOCKED: ATOM      2  C   UNL d   1       4.365 -14.314   5.137 -0.23 -0.07    +0.194 C 
DOCKED: ATOM      3  C   UNL d   1       5.158 -14.893   3.963 -0.17 -0.07    +0.194 C 
DOCKED: ATOM      4  C   UNL d   1       6.667 -14.714   4.110 -0.20 -0.04    +0.194 C 
DOCKED: ATOM      5  C   UNL d   1       7.089 -13.304   4.504 -0.26 -0.03    +0.194 C 
DOCKED: ATOM      6  C   UNL d   1       6.255 -12.701   5.636 -0.20 -0.03    +0.194 C 
DOCKED: ENDROOT
DOCKED: BRANCH   1   7
DOCKED: ATOM      7  O   UNL d   1       4.099 -12.451   6.623 -0.12 +0.05    -0.278 OA
DOCKED: BRANCH   7   8
DOCKED: ATOM      8  P   UNL d   1       2.725 -11.645   6.508 -0.22 -0.10    +0.473 P 
DOCKED: ATOM      9  O   UNL d   1       2.847 -10.168   6.637 -0.37 +0.01    -0.228 OA
DOCKED: BRANCH   8  10
DOCKED: ATOM     10  O   UNL d   1       2.123 -12.106   5.104 -0.33 +0.14    -0.303 OA
DOCKED: ATOM     11  H   UNL d   1       1.764 -13.009   5.183 -0.27 -0.11    +0.222 HD
DOCKED: ENDBRANCH   8  10
DOCKED: BRANCH   8  12
DOCKED: ATOM     12  O   UNL d   1       1.744 -12.353   7.539 -0.13 +0.05    -0.303 OA
DOCKED: ATOM     13  H   UNL d   1       2.023 -13.267   7.771 +0.08 -0.03    +0.222 HD
DOCKED: ENDBRANCH   8  12
DOCKED: ENDBRANCH   7   8
DOCKED: ENDBRANCH   1   7
DOCKED: BRANCH   2  14
DOCKED: ATOM     14  O   UNL d   1       4.634 -15.102   6.303 -0.07 +0.06    -0.278 OA
DOCKED: BRANCH  14  15
DOCKED: ATOM     15  P   UNL d   1       3.388 -15.411   7.261 -0.05 -0.08    +0.473 P 
DOCKED: ATOM     16  O   UNL d   1       3.183 -16.840   7.657 -0.05 +0.03    -0.228 OA
DOCKED: BRANCH  15  17
DOCKED: ATOM     17  O   UNL d   1       3.612 -14.450   8.511 -0.01 +0.03    -0.303 OA
DOCKED: ATOM     18  H   UNL d   1       3.474 -13.515   8.265 +0.05 -0.03    +0.222 HD
DOCKED: ENDBRANCH  15  17
DOCKED: BRANCH  15  19
DOCKED: ATOM     19  O   UNL d   1       2.152 -14.715   6.541 -0.16 +0.06    -0.303 OA
DOCKED: ATOM     20  H   UNL d   1       2.383 -13.830   6.203 +0.09 -0.06    +0.222 HD
DOCKED: ENDBRANCH  15  19
DOCKED: ENDBRANCH  14  15
DOCKED: ENDBRANCH   2  14
DOCKED: BRANCH   6  21
DOCKED: ATOM     21  O   UNL d   1       6.531 -11.302   5.651 -0.31 +0.03    -0.278 OA
DOCKED: BRANCH  21  22
DOCKED: ATOM     22  P   UNL d   1       6.978 -10.597   7.010 -0.04 -0.07    +0.473 P 
DOCKED: ATOM     23  O   UNL d   1       7.570  -9.231   6.934 -0.20 +0.04    -0.228 OA
DOCKED: BRANCH  22  24
DOCKED: ATOM     24  O   UNL d   1       5.650 -10.701   7.882 -0.08 +0.03    -0.303 OA
DOCKED: ATOM     25  H   UNL d   1       4.878 -10.509   7.292 +0.09 -0.02    +0.222 HD
DOCKED: ENDBRANCH  22  24
DOCKED: BRANCH  22  26
DOCKED: ATOM     26  O   UNL d   1       7.900 -11.727   7.675 -0.03 +0.04    -0.303 OA
DOCKED: ATOM     27  H   UNL d   1       8.188 -12.356   6.982 +0.06 -0.03    +0.222 HD
DOCKED: ENDBRANCH  22  26
DOCKED: ENDBRANCH  21  22
DOCKED: ENDBRANCH   6  21
DOCKED: BRANCH   3  28
DOCKED: ATOM     28  O   UNL d   1       4.944 -16.299   3.954 -0.18 +0.08    -0.278 OA
DOCKED: BRANCH  28  29
DOCKED: ATOM     29  P   UNL d   1       4.998 -17.112   2.586 -0.18 -0.11    +0.473 P 
DOCKED: ATOM     30  O   UNL d   1       3.774 -17.884   2.251 -0.24 +0.05    -0.228 OA
DOCKED: BRANCH  29  31
DOCKED: ATOM     31  O   UNL d   1       5.415 -15.939   1.580 -0.26 +0.10    -0.303 OA
DOCKED: ATOM     32  H   UNL d   1       6.396 -15.852   1.589 +0.07 -0.05    +0.222 HD
DOCKED: ENDBRANCH  29  31
DOCKED: BRANCH  29  33
DOCKED: ATOM     33  O   UNL d   1       6.350 -17.938   2.742 -0.03 +0.04    -0.303 OA
DOCKED: ATOM     34  H   UNL d   1       7.096 -17.308   2.894 +0.05 -0.03    +0.222 HD
DOCKED: ENDBRANCH  29  33
DOCKED: ENDBRANCH  28  29
DOCKED: ENDBRANCH   3  28
DOCKED: BRANCH   5  35
DOCKED: ATOM     35  O   UNL d   1       8.427 -13.420   4.983 -0.10 +0.05    -0.278 OA
DOCKED: BRANCH  35  36
DOCKED: ATOM     36  P   UNL d   1       9.515 -12.315   4.610 -0.22 -0.18    +0.473 P 
DOCKED: ATOM     37  O   UNL d   1      10.790 -12.835   4.028 -0.19 +0.09    -0.228 OA
DOCKED: BRANCH  36  38
DOCKED: ATOM     38  O   UNL d   1       8.690 -11.362   3.636 -0.93 +0.10    -0.303 OA
DOCKED: ATOM     39  H   UNL d   1       9.180 -11.266   2.791 -0.39 -0.15    +0.222 HD
DOCKED: ENDBRANCH  36  38
DOCKED: BRANCH  36  40
DOCKED: ATOM     40  O   UNL d   1       9.625 -11.479   5.959 -0.15 +0.13    -0.303 OA
DOCKED: ATOM     41  H   UNL d   1       8.940 -10.776   6.009 +0.07 -0.10    +0.222 HD
DOCKED: ENDBRANCH  36  40
DOCKED: ENDBRANCH  35  36
DOCKED: ENDBRANCH   5  35
DOCKED: BRANCH   4  42
DOCKED: ATOM     42  O   UNL d   1       7.243 -14.984   2.828 -0.22 +0.04    -0.278 OA
DOCKED: BRANCH  42  43
DOCKED: ATOM     43  P   UNL d   1       8.621 -15.784   2.755 -0.08 -0.07    +0.473 P 
DOCKED: ATOM     44  O   UNL d   1       9.874 -14.985   2.645 -0.13 +0.04    -0.228 OA
DOCKED: BRANCH  43  45
DOCKED: ATOM     45  O   UNL d   1       8.554 -16.715   4.044 -0.01 +0.04    -0.303 OA
DOCKED: ATOM     46  H   UNL d   1       7.642 -17.025   4.213 +0.03 -0.03    +0.222 HD
DOCKED: ENDBRANCH  43  45
DOCKED: BRANCH  43  47
DOCKED: ATOM     47  O   UNL d   1       8.369 -16.840   1.576 -0.06 +0.04    -0.303 OA
DOCKED: ATOM     48  H   UNL d   1       7.440 -16.771   1.274 +0.06 -0.03    +0.222 HD
DOCKED: ENDBRANCH  43  47
DOCKED: ENDBRANCH  42  43
DOCKED: ENDBRANCH   4  42
DOCKED: TORSDOF 24
DOCKED: TER
DOCKED: ENDMDL
________________________________________________________________________________

DPF> analysis                             # perform a ranked cluster analysis


		CLUSTER ANALYSIS OF CONFORMATIONS
		_________________________________

Number of conformations = 100

RMSD cluster analysis will be performed using the ligand atoms only (48 / 48 total atoms).

Outputting structurally similar clusters, ranked in order of increasing energy.


________________________________________________________________________________

Number of distinct conformational clusters found = 92,  out of 100 runs,
Using an rmsd-tolerance of 2.0 A


	CLUSTERING HISTOGRAM
	____________________

________________________________________________________________________________
     |           |     |           |     |                                    
Clus | Lowest    | Run | Mean      | Num | Histogram                          
-ter | Binding   |     | Binding   | in  |                                    
Rank | Energy    |     | Energy    | Clus|    5    10   15   20   25   30   35
_____|___________|_____|___________|_____|____:____|____:____|____:____|____:___
   1 |     -0.60 |  39 |     -0.60 |   1 |#
   2 |     +0.14 |  43 |     +0.14 |   1 |#
   3 |     +0.35 |  89 |     +1.27 |   2 |##
   4 |     +0.44 |  86 |     +0.44 |   1 |#
   5 |     +0.50 |  87 |     +0.50 |   1 |#
   6 |     +0.54 | 100 |     +0.54 |   1 |#
   7 |     +0.59 |  83 |     +0.59 |   1 |#
   8 |     +0.59 |  37 |     +0.59 |   1 |#
   9 |     +0.83 |  68 |     +0.83 |   1 |#
  10 |     +1.11 |  36 |     +1.11 |   1 |#
  11 |     +1.14 |  77 |     +1.14 |   1 |#
  12 |     +1.17 |  33 |     +1.81 |   2 |##
  13 |     +1.20 |  90 |     +1.20 |   1 |#
  14 |     +1.41 |  69 |     +1.41 |   1 |#
  15 |     +1.47 |  15 |     +1.47 |   1 |#
  16 |     +1.48 |  52 |     +2.02 |   2 |##
  17 |     +1.57 |  84 |     +1.57 |   1 |#
  18 |     +1.67 |  76 |     +1.67 |   1 |#
  19 |     +1.81 |  11 |     +2.54 |   2 |##
  20 |     +1.83 |  67 |     +1.83 |   1 |#
  21 |     +1.98 |  28 |     +1.98 |   1 |#
  22 |     +2.05 |  66 |     +2.05 |   1 |#
  23 |     +2.14 |  13 |     +2.14 |   1 |#
  24 |     +2.29 |  29 |     +2.29 |   1 |#
  25 |     +2.35 |  73 |     +2.35 |   1 |#
  26 |     +2.39 |  31 |     +2.82 |   2 |##
  27 |     +2.48 |  79 |     +2.48 |   1 |#
  28 |     +2.68 |   5 |     +2.68 |   1 |#
  29 |     +2.71 |  34 |     +2.71 |   1 |#
  30 |     +2.73 |  35 |     +2.75 |   2 |##
  31 |     +2.74 |   6 |     +2.74 |   1 |#
  32 |     +2.78 |  32 |     +2.78 |   1 |#
  33 |     +2.81 |  49 |     +2.81 |   1 |#
  34 |     +2.81 |   7 |     +2.81 |   1 |#
  35 |     +2.82 |  51 |     +2.82 |   1 |#
  36 |     +2.88 |  92 |     +2.88 |   1 |#
  37 |     +3.03 |  95 |     +3.03 |   1 |#
  38 |     +3.05 |  25 |     +3.05 |   1 |#
  39 |     +3.10 |  54 |     +3.10 |   1 |#
  40 |     +3.11 |  59 |     +3.11 |   1 |#
  41 |     +3.14 |  53 |     +3.14 |   1 |#
  42 |     +3.14 |   3 |     +3.14 |   1 |#
  43 |     +3.15 |  44 |     +3.15 |   1 |#
  44 |     +3.18 |  85 |     +3.18 |   1 |#
  45 |     +3.21 |   1 |     +3.21 |   1 |#
  46 |     +3.21 |  19 |     +3.21 |   1 |#
  47 |     +3.22 |  20 |     +3.22 |   1 |#
  48 |     +3.23 |  55 |     +3.23 |   1 |#
  49 |     +3.25 |  80 |     +3.25 |   1 |#
  50 |     +3.25 |  41 |     +3.25 |   1 |#
  51 |     +3.25 |  64 |     +3.51 |   2 |##
  52 |     +3.26 |  18 |     +3.26 |   1 |#
  53 |     +3.28 |  42 |     +3.28 |   1 |#
  54 |     +3.28 |  61 |     +3.28 |   1 |#
  55 |     +3.31 |  57 |     +3.31 |   1 |#
  56 |     +3.31 |  21 |     +3.31 |   1 |#
  57 |     +3.32 |  75 |     +3.32 |   1 |#
  58 |     +3.33 |  72 |     +3.33 |   1 |#
  59 |     +3.34 |  60 |     +3.34 |   1 |#
  60 |     +3.39 |  82 |     +3.39 |   1 |#
  61 |     +3.43 |  22 |     +3.43 |   1 |#
  62 |     +3.46 |  94 |     +3.50 |   2 |##
  63 |     +3.49 |  97 |     +3.49 |   1 |#
  64 |     +3.51 |  24 |     +3.51 |   1 |#
  65 |     +3.57 |  47 |     +3.57 |   1 |#
  66 |     +3.59 |  38 |     +3.59 |   1 |#
  67 |     +3.59 |  78 |     +3.59 |   1 |#
  68 |     +3.62 |   2 |     +3.62 |   1 |#
  69 |     +3.63 |  50 |     +3.63 |   1 |#
  70 |     +3.72 |  23 |     +3.72 |   1 |#
  71 |     +3.74 |  70 |     +3.74 |   1 |#
  72 |     +3.79 |  63 |     +3.79 |   1 |#
  73 |     +3.83 |  27 |     +3.83 |   1 |#
  74 |     +3.87 |  56 |     +3.87 |   1 |#
  75 |     +3.88 |  58 |     +3.88 |   1 |#
  76 |     +4.01 |  48 |     +4.01 |   1 |#
  77 |     +4.05 |  10 |     +4.05 |   1 |#
  78 |     +4.15 |  16 |     +4.15 |   1 |#
  79 |     +4.19 |  65 |     +4.19 |   1 |#
  80 |     +4.32 |  88 |     +4.32 |   1 |#
  81 |     +4.38 |  98 |     +4.38 |   1 |#
  82 |     +4.47 |  81 |     +4.47 |   1 |#
  83 |     +4.48 |   9 |     +4.48 |   1 |#
  84 |     +4.51 |  71 |     +4.51 |   1 |#
  85 |     +4.56 |   8 |     +4.56 |   1 |#
  86 |     +4.58 |  93 |     +4.58 |   1 |#
  87 |     +4.70 |  96 |     +4.70 |   1 |#
  88 |     +4.71 |  30 |     +4.71 |   1 |#
  89 |     +4.71 |  12 |     +4.71 |   1 |#
  90 |     +4.82 |  62 |     +4.82 |   1 |#
  91 |     +4.89 |  40 |     +4.89 |   1 |#
  92 |     +4.93 |  26 |     +4.93 |   1 |#
_____|___________|_____|___________|_____|______________________________________


Number of multi-member conformational clusters found = 8, out of 100 runs.

	RMSD TABLE
	__________

_____________________________________________________________________
     |      |      |           |         |                 |
Rank | Sub- | Run  | Binding   | Cluster | Reference       | Grep
     | Rank |      | Energy    | RMSD    | RMSD            | Pattern
_____|______|______|___________|_________|_________________|___________
   1      1     39       -0.60      0.00     15.59           RANKING
   2      1     43       +0.14      0.00     14.18           RANKING
   3      1     89       +0.35      0.00     17.23           RANKING
   3      2     74       +2.19      1.84     18.02           RANKING
   4      1     86       +0.44      0.00     18.79           RANKING
   5      1     87       +0.50      0.00     19.20           RANKING
   6      1    100       +0.54      0.00     12.63           RANKING
   7      1     83       +0.59      0.00     15.21           RANKING
   8      1     37       +0.59      0.00     16.04           RANKING
   9      1     68       +0.83      0.00     18.98           RANKING
  10      1     36       +1.11      0.00     12.87           RANKING
  11      1     77       +1.14      0.00     17.44           RANKING
  12      1     33       +1.17      0.00     20.70           RANKING
  12      2     45       +2.44      1.84     21.59           RANKING
  13      1     90       +1.20      0.00     17.97           RANKING
  14      1     69       +1.41      0.00     15.43           RANKING
  15      1     15       +1.47      0.00     16.09           RANKING
  16      1     52       +1.48      0.00     18.70           RANKING
  16      2     99       +2.55      1.96     19.39           RANKING
  17      1     84       +1.57      0.00     15.22           RANKING
  18      1     76       +1.67      0.00     18.19           RANKING
  19      1     11       +1.81      0.00     17.76           RANKING
  19      2     17       +3.27      1.88     18.23           RANKING
  20      1     67       +1.83      0.00     15.09           RANKING
  21      1     28       +1.98      0.00     18.75           RANKING
  22      1     66       +2.05      0.00     17.99           RANKING
  23      1     13       +2.14      0.00     13.03           RANKING
  24      1     29       +2.29      0.00     17.98           RANKING
  25      1     73       +2.35      0.00     14.29           RANKING
  26      1     31       +2.39      0.00     17.58           RANKING
  26      2     46       +3.26      1.94     17.90           RANKING
  27      1     79       +2.48      0.00     19.00           RANKING
  28      1      5       +2.68      0.00     14.82           RANKING
  29      1     34       +2.71      0.00     19.05           RANKING
  30      1     35       +2.73      0.00     12.49           RANKING
  30      2     14       +2.76      1.65     12.46           RANKING
  31      1      6       +2.74      0.00     17.25           RANKING
  32      1     32       +2.78      0.00     16.28           RANKING
  33      1     49       +2.81      0.00     13.63           RANKING
  34      1      7       +2.81      0.00     11.18           RANKING
  35      1     51       +2.82      0.00     13.39           RANKING
  36      1     92       +2.88      0.00     14.09           RANKING
  37      1     95       +3.03      0.00     17.89           RANKING
  38      1     25       +3.05      0.00     10.77           RANKING
  39      1     54       +3.10      0.00     16.53           RANKING
  40      1     59       +3.11      0.00     20.60           RANKING
  41      1     53       +3.14      0.00     20.68           RANKING
  42      1      3       +3.14      0.00     18.92           RANKING
  43      1     44       +3.15      0.00      9.79           RANKING
  44      1     85       +3.18      0.00     21.29           RANKING
  45      1      1       +3.21      0.00     14.78           RANKING
  46      1     19       +3.21      0.00     11.76           RANKING
  47      1     20       +3.22      0.00     13.96           RANKING
  48      1     55       +3.23      0.00     18.45           RANKING
  49      1     80       +3.25      0.00     15.34           RANKING
  50      1     41       +3.25      0.00     18.55           RANKING
  51      1     64       +3.25      0.00     19.69           RANKING
  51      2     91       +3.77      1.81     20.91           RANKING
  52      1     18       +3.26      0.00     14.39           RANKING
  53      1     42       +3.28      0.00     20.63           RANKING
  54      1     61       +3.28      0.00     15.59           RANKING
  55      1     57       +3.31      0.00     15.43           RANKING
  56      1     21       +3.31      0.00     13.17           RANKING
  57      1     75       +3.32      0.00     20.18           RANKING
  58      1     72       +3.33      0.00     18.55           RANKING
  59      1     60       +3.34      0.00     22.39           RANKING
  60      1     82       +3.39      0.00     20.74           RANKING
  61      1     22       +3.43      0.00     21.63           RANKING
  62      1     94       +3.46      0.00     13.07           RANKING
  62      2      4       +3.54      1.80     14.00           RANKING
  63      1     97       +3.49      0.00     12.65           RANKING
  64      1     24       +3.51      0.00     11.98           RANKING
  65      1     47       +3.57      0.00     14.11           RANKING
  66      1     38       +3.59      0.00     18.95           RANKING
  67      1     78       +3.59      0.00     13.55           RANKING
  68      1      2       +3.62      0.00     19.79           RANKING
  69      1     50       +3.63      0.00     20.54           RANKING
  70      1     23       +3.72      0.00     18.65           RANKING
  71      1     70       +3.74      0.00     17.67           RANKING
  72      1     63       +3.79      0.00     16.34           RANKING
  73      1     27       +3.83      0.00     13.75           RANKING
  74      1     56       +3.87      0.00     20.11           RANKING
  75      1     58       +3.88      0.00     22.58           RANKING
  76      1     48       +4.01      0.00     16.69           RANKING
  77      1     10       +4.05      0.00     17.83           RANKING
  78      1     16       +4.15      0.00     16.94           RANKING
  79      1     65       +4.19      0.00     16.08           RANKING
  80      1     88       +4.32      0.00     22.38           RANKING
  81      1     98       +4.38      0.00     18.42           RANKING
  82      1     81       +4.47      0.00     16.98           RANKING
  83      1      9       +4.48      0.00     18.20           RANKING
  84      1     71       +4.51      0.00     19.72           RANKING
  85      1      8       +4.56      0.00     18.84           RANKING
  86      1     93       +4.58      0.00     19.99           RANKING
  87      1     96       +4.70      0.00     16.74           RANKING
  88      1     30       +4.71      0.00     20.44           RANKING
  89      1     12       +4.71      0.00     21.97           RANKING
  90      1     62       +4.82      0.00     17.08           RANKING
  91      1     40       +4.89      0.00     16.58           RANKING
  92      1     26       +4.93      0.00     19.29           RANKING
_______________________________________________________________________



	INFORMATION ENTROPY ANALYSIS FOR THIS CLUSTERING
	________________________________________________


Information entropy for this clustering = 0.98  (rmstol = 2.00 Angstrom)

_______________________________________________________________________


	STATISTICAL MECHANICAL ANALYSIS
	_______________________________


Partition function, Q =    99.51            at Temperature, T = 298.15 K
Free energy,        A ~ -2725.56 kcal/mol   at Temperature, T = 298.15 K
Internal energy,    U =     2.92 kcal/mol   at Temperature, T = 298.15 K
Entropy,            S =     9.15 kcal/mol/K at Temperature, T = 298.15 K

_______________________________________________________________________


	LOWEST ENERGY DOCKED CONFORMATION from EACH CLUSTER
	___________________________________________________



Keeping original residue number (specified in the input PDBQ file) for outputting.

MODEL       39
USER    Run = 39
USER    Cluster Rank = 1
USER    Number of conformations in this cluster = 1
USER  
USER    RMSD from reference structure       = 15.593 A
USER  
USER    Estimated Free Energy of Binding    =   -0.60 kcal/mol  [=(1)+(2)+(3)-(4)]
USER    Estimated Inhibition Constant, Ki   =  363.85 mM (millimolar)  [Temperature = 298.15 K]
USER    
USER    (1) Final Intermolecular Energy     =   -7.76 kcal/mol
USER        vdW + Hbond + desolv Energy     =   -7.12 kcal/mol
USER        Electrostatic Energy            =   -0.64 kcal/mol
USER    (2) Final Total Internal Energy     =   -9.19 kcal/mol
USER    (3) Torsional Free Energy           =   +7.16 kcal/mol
USER    (4) Unbound System's Energy  [=(2)] =   -9.19 kcal/mol
USER    
USER    
USER  
USER    DPF = D:/Protein_go_brrr/autodock/final/mut_Y35F/IHP/dock.dpf
USER    NEWDPF move	IHP_ideal_opt.pdbqt
USER    NEWDPF about	0.035000 0.082000 -0.065000
USER    NEWDPF tran0	0.229581 19.099996 1.163300
USER    NEWDPF axisangle0	0.350242 -0.542274 0.763720 -149.589563
USER    NEWDPF quaternion0	0.337981 -0.523291 0.736984 -0.262277
USER    NEWDPF dihe0	-9.22 -119.03 -13.10 173.87 16.21 -174.65 -42.29 -47.37 -32.01 93.68 93.82 -73.25 -155.45 61.08 142.19 80.92 -38.51 -91.01 15.17 31.82 -25.01 18.23 13.52 -25.07 
USER  
USER                              x       y       z    vdW   Elec        q     RMS 
ATOM      1  C   UNL d   1       0.270  18.670   2.836 -0.28 -0.04    +0.194    15.593
ATOM      2  C   UNL d   1       1.573  19.232   2.267 -0.20 -0.03    +0.194    15.593
ATOM      3  C   UNL d   1       1.888  18.648   0.888 -0.14 -0.04    +0.194    15.593
ATOM      4  C   UNL d   1       0.728  18.771  -0.097 -0.16 -0.03    +0.194    15.593
ATOM      5  C   UNL d   1      -0.616  18.329   0.469 -0.20 -0.05    +0.194    15.593
ATOM      6  C   UNL d   1      -0.903  18.864   1.874 -0.16 -0.04    +0.194    15.593
ATOM      7  O   UNL d   1      -0.040  19.387   4.034 -0.17 +0.05    -0.278    15.593
ATOM      8  P   UNL d   1       0.147  18.642   5.434 -0.28 -0.12    +0.473    15.593
ATOM      9  O   UNL d   1      -1.114  18.184   6.079 -0.31 +0.08    -0.228    15.593
ATOM     10  O   UNL d   1       1.154  17.449   5.106 -0.61 +0.06    -0.303    15.593
ATOM     11  H   UNL d   1       1.168  16.819   5.850 -0.39 -0.10    +0.222    15.593
ATOM     12  O   UNL d   1       1.056  19.615   6.301 -0.58 +0.05    -0.303    15.593
ATOM     13  H   UNL d   1       1.450  19.175   7.088 -0.18 -0.08    +0.222    15.593
ATOM     14  O   UNL d   1       1.454  20.655   2.143 -0.08 +0.03    -0.278    15.593
ATOM     15  P   UNL d   1       2.818  21.475   1.961 -0.06 -0.04    +0.473    15.593
ATOM     16  O   UNL d   1       2.988  22.219   0.674 -0.02 +0.01    -0.228    15.593
ATOM     17  O   UNL d   1       2.870  22.428   3.237 -0.07 +0.04    -0.303    15.593
ATOM     18  H   UNL d   1       2.713  23.359   2.987 +0.02 -0.02    +0.222    15.593
ATOM     19  O   UNL d   1       3.961  20.423   2.302 -0.09 +0.02    -0.303    15.593
ATOM     20  H   UNL d   1       4.507  20.218   1.520 +0.06 -0.01    +0.222    15.593
ATOM     21  O   UNL d   1      -1.995  18.105   2.388 -0.18 +0.06    -0.278    15.593
ATOM     22  P   UNL d   1      -3.279  18.857   2.965 -0.09 -0.11    +0.473    15.593
ATOM     23  O   UNL d   1      -4.470  18.037   3.333 -0.25 +0.06    -0.228    15.593
ATOM     24  O   UNL d   1      -2.652  19.698   4.162 -0.09 +0.07    -0.303    15.593
ATOM     25  H   UNL d   1      -2.102  19.086   4.714 +0.10 -0.05    +0.222    15.593
ATOM     26  O   UNL d   1      -3.520  19.989   1.855 -0.02 +0.06    -0.303    15.593
ATOM     27  H   UNL d   1      -2.959  19.800   1.076 +0.05 -0.05    +0.222    15.593
ATOM     28  O   UNL d   1       2.943  19.419   0.327 -0.12 +0.02    -0.278    15.593
ATOM     29  P   UNL d   1       4.241  18.703  -0.255 -0.14 +0.02    +0.473    15.593
ATOM     30  O   UNL d   1       3.991  17.664  -1.288 -0.27 -0.12    -0.228    15.593
ATOM     31  O   UNL d   1       5.089  19.984  -0.704 -0.05 -0.03    -0.303    15.593
ATOM     32  H   UNL d   1       4.644  20.792  -0.359 +0.05 +0.01    +0.222    15.593
ATOM     33  O   UNL d   1       4.987  18.234   1.071 -0.03 +0.06    -0.303    15.593
ATOM     34  H   UNL d   1       4.372  18.338   1.839 -0.33 -0.06    +0.222    15.593
ATOM     35  O   UNL d   1      -1.602  18.881  -0.400 -0.07 +0.09    -0.278    15.593
ATOM     36  P   UNL d   1      -2.936  18.067  -0.724 -0.11 -0.25    +0.473    15.593
ATOM     37  O   UNL d   1      -3.117  16.795   0.042 -0.20 +0.14    -0.228    15.593
ATOM     38  O   UNL d   1      -4.060  19.162  -0.450 -0.02 +0.09    -0.303    15.593
ATOM     39  H   UNL d   1      -4.472  18.988   0.423 +0.05 -0.06    +0.222    15.593
ATOM     40  O   UNL d   1      -2.889  17.955  -2.310 -0.11 +0.26    -0.303    15.593
ATOM     41  H   UNL d   1      -2.030  17.595  -2.624 -0.01 -0.30    +0.222    15.593
ATOM     42  O   UNL d   1       1.026  17.908  -1.199 -0.22 +0.02    -0.278    15.593
ATOM     43  P   UNL d   1       0.779  18.438  -2.683 -0.07 -0.02    +0.473    15.593
ATOM     44  O   UNL d   1      -0.505  19.143  -2.955 -0.08 +0.07    -0.228    15.593
ATOM     45  O   UNL d   1       2.075  19.318  -2.959 -0.22 -0.12    -0.303    15.593
ATOM     46  H   UNL d   1       2.809  19.072  -2.361 +0.05 +0.11    +0.222    15.593
ATOM     47  O   UNL d   1       1.064  17.145  -3.586 -0.39 -0.03    -0.303    15.593
ATOM     48  H   UNL d   1       0.213  16.787  -3.914 -0.47 -0.33    +0.222    15.593
TER
ENDMDL
MODEL       43
USER    Run = 43
USER    Cluster Rank = 2
USER    Number of conformations in this cluster = 1
USER  
USER    RMSD from reference structure       = 14.175 A
USER  
USER    Estimated Free Energy of Binding    =   +0.14 kcal/mol  [=(1)+(2)+(3)-(4)]
USER    
USER    (1) Final Intermolecular Energy     =   -7.02 kcal/mol
USER        vdW + Hbond + desolv Energy     =   -6.40 kcal/mol
USER        Electrostatic Energy            =   -0.62 kcal/mol
USER    (2) Final Total Internal Energy     =  -10.31 kcal/mol
USER    (3) Torsional Free Energy           =   +7.16 kcal/mol
USER    (4) Unbound System's Energy  [=(2)] =  -10.31 kcal/mol
USER    
USER    
USER  
USER    DPF = D:/Protein_go_brrr/autodock/final/mut_Y35F/IHP/dock.dpf
USER    NEWDPF move	IHP_ideal_opt.pdbqt
USER    NEWDPF about	0.035000 0.082000 -0.065000
USER    NEWDPF tran0	-15.132836 6.126265 8.479131
USER    NEWDPF axisangle0	-0.451580 0.780967 0.431470 163.932770
USER    NEWDPF quaternion0	-0.447149 0.773302 0.427236 0.139754
USER    NEWDPF dihe0	138.98 -10.26 -87.74 105.14 27.31 172.34 -31.00 -7.14 151.85 126.83 -97.28 -146.55 -96.12 -39.58 161.09 131.10 -54.51 -41.50 48.42 1.13 -26.35 20.27 -179.85 164.50 
USER  
USER                              x       y       z    vdW   Elec        q     RMS 
ATOM      1  C   UNL d   1     -15.801   5.325   7.102 -0.09 +0.15    +0.194    14.175
ATOM      2  C   UNL d   1     -14.420   5.951   6.897 -0.10 +0.19    +0.194    14.175
ATOM      3  C   UNL d   1     -14.329   7.342   7.527 -0.07 +0.18    +0.194    14.175
ATOM      4  C   UNL d   1     -14.764   7.370   8.990 -0.06 +0.25    +0.194    14.175
ATOM      5  C   UNL d   1     -16.083   6.656   9.259 -0.06 +0.16    +0.194    14.175
ATOM      6  C   UNL d   1     -16.198   5.290   8.579 -0.11 +0.18    +0.194    14.175
ATOM      7  O   UNL d   1     -15.751   3.972   6.642 -0.36 -0.22    -0.278    14.175
ATOM      8  P   UNL d   1     -15.721   3.707   5.068 -0.06 +0.18    +0.473    14.175
ATOM      9  O   UNL d   1     -16.683   4.518   4.273 -0.02 -0.06    -0.228    14.175
ATOM     10  O   UNL d   1     -14.200   3.959   4.661 -0.14 -0.15    -0.303    14.175
ATOM     11  H   UNL d   1     -13.758   4.481   5.356 +0.08 +0.16    +0.222    14.175
ATOM     12  O   UNL d   1     -15.850   2.130   4.912 -0.16 -0.07    -0.303    14.175
ATOM     13  H   UNL d   1     -15.159   1.637   5.410 -0.48 -0.00    +0.222    14.175
ATOM     14  O   UNL d   1     -13.432   5.109   7.505 -0.20 -0.55    -0.278    14.175
ATOM     15  P   UNL d   1     -12.136   4.777   6.625 -0.17 +0.64    +0.473    14.175
ATOM     16  O   UNL d   1     -11.895   5.644   5.429 -0.26 -0.20    -0.228    14.175
ATOM     17  O   UNL d   1     -10.935   4.821   7.671 -0.50 -0.41    -0.303    14.175
ATOM     18  H   UNL d   1     -10.090   4.575   7.247 +0.05 +0.18    +0.222    14.175
ATOM     19  O   UNL d   1     -12.246   3.218   6.330 -0.50 -0.44    -0.303    14.175
ATOM     20  H   UNL d   1     -13.147   2.965   6.056 -0.12 +0.24    +0.222    14.175
ATOM     21  O   UNL d   1     -17.573   4.917   8.633 -0.06 -0.14    -0.278    14.175
ATOM     22  P   UNL d   1     -17.982   3.483   9.200 -0.10 +0.25    +0.473    14.175
ATOM     23  O   UNL d   1     -19.389   3.025   9.010 -0.61 -0.09    -0.228    14.175
ATOM     24  O   UNL d   1     -16.879   2.545   8.540 -0.21 -0.25    -0.303    14.175
ATOM     25  H   UNL d   1     -16.718   2.863   7.615 -0.04 +0.15    +0.222    14.175
ATOM     26  O   UNL d   1     -17.473   3.576  10.718 -0.16 -0.16    -0.303    14.175
ATOM     27  H   UNL d   1     -17.042   4.443  10.860 +0.05 +0.13    +0.222    14.175
ATOM     28  O   UNL d   1     -12.959   7.721   7.534 -0.15 -0.31    -0.278    14.175
ATOM     29  P   UNL d   1     -12.516   9.150   6.987 -0.07 +0.35    +0.473    14.175
ATOM     30  O   UNL d   1     -12.147  10.147   8.024 -0.30 -0.23    -0.228    14.175
ATOM     31  O   UNL d   1     -11.369   8.712   5.959 -0.18 -0.14    -0.303    14.175
ATOM     32  H   UNL d   1     -11.504   7.765   5.723 +0.09 +0.13    +0.222    14.175
ATOM     33  O   UNL d   1     -13.726   9.528   6.023 -0.02 -0.12    -0.303    14.175
ATOM     34  H   UNL d   1     -14.575   9.428   6.519 +0.03 +0.10    +0.222    14.175
ATOM     35  O   UNL d   1     -16.119   6.428  10.667 -0.04 -0.23    -0.278    14.175
ATOM     36  P   UNL d   1     -14.867   5.775  11.409 -0.11 +0.57    +0.473    14.175
ATOM     37  O   UNL d   1     -13.803   5.223  10.514 -0.43 -0.48    -0.228    14.175
ATOM     38  O   UNL d   1     -14.382   6.970  12.343 -0.45 -0.46    -0.303    14.175
ATOM     39  H   UNL d   1     -14.935   6.988  13.154 +0.03 +0.20    +0.222    14.175
ATOM     40  O   UNL d   1     -15.561   4.759  12.416 -0.09 -0.22    -0.303    14.175
ATOM     41  H   UNL d   1     -15.754   3.895  11.988 +0.05 +0.18    +0.222    14.175
ATOM     42  O   UNL d   1     -14.951   8.745   9.342 -0.31 -0.40    -0.278    14.175
ATOM     43  P   UNL d   1     -15.909   9.648   8.441 -0.01 +0.27    +0.473    14.175
ATOM     44  O   UNL d   1     -16.639   8.978   7.329 +0.00 -0.08    -0.228    14.175
ATOM     45  O   UNL d   1     -16.856  10.335   9.520 +0.00 -0.12    -0.303    14.175
ATOM     46  H   UNL d   1     -17.599  10.807   9.095 +0.00 +0.05    +0.222    14.175
ATOM     47  O   UNL d   1     -14.964  10.869   8.012 -0.02 -0.15    -0.303    14.175
ATOM     48  H   UNL d   1     -14.042  10.549   7.926 +0.04 +0.16    +0.222    14.175
TER
ENDMDL
MODEL       89
USER    Run = 89
USER    Cluster Rank = 3
USER    Number of conformations in this cluster = 2
USER  
USER    RMSD from reference structure       = 17.228 A
USER  
USER    Estimated Free Energy of Binding    =   +0.35 kcal/mol  [=(1)+(2)+(3)-(4)]
USER    
USER    (1) Final Intermolecular Energy     =   -6.81 kcal/mol
USER        vdW + Hbond + desolv Energy     =   -5.90 kcal/mol
USER        Electrostatic Energy            =   -0.91 kcal/mol
USER    (2) Final Total Internal Energy     =  -12.10 kcal/mol
USER    (3) Torsional Free Energy           =   +7.16 kcal/mol
USER    (4) Unbound System's Energy  [=(2)] =  -12.10 kcal/mol
USER    
USER    
USER  
USER    DPF = D:/Protein_go_brrr/autodock/final/mut_Y35F/IHP/dock.dpf
USER    NEWDPF move	IHP_ideal_opt.pdbqt
USER    NEWDPF about	0.035000 0.082000 -0.065000
USER    NEWDPF tran0	11.308078 18.093816 0.447417
USER    NEWDPF axisangle0	-0.642860 0.735511 -0.213904 157.172788
USER    NEWDPF quaternion0	-0.630147 0.720966 -0.209674 0.197890
USER    NEWDPF dihe0	144.98 52.17 114.43 -9.21 12.82 -98.74 5.54 -105.52 99.52 25.67 3.85 -180.00 143.27 101.55 -2.91 -42.34 43.76 -89.16 29.91 -15.54 -54.36 145.43 39.75 -140.51 
USER  
USER                              x       y       z    vdW   Elec        q     RMS 
ATOM      1  C   UNL d   1      12.012  16.518   0.524 -0.21 -0.15    +0.194    17.228
ATOM      2  C   UNL d   1      12.976  17.657   0.188 -0.01 -0.23    +0.194    17.228
ATOM      3  C   UNL d   1      12.370  18.634  -0.822 -0.10 -0.20    +0.194    17.228
ATOM      4  C   UNL d   1      10.992  19.146  -0.410 -0.07 -0.08    +0.194    17.228
ATOM      5  C   UNL d   1      10.033  18.053   0.043 -0.12 -0.06    +0.194    17.228
ATOM      6  C   UNL d   1      10.658  17.040   1.005 -0.15 -0.08    +0.194    17.228
ATOM      7  O   UNL d   1      12.578  15.755   1.591 -0.13 +0.14    -0.278    17.228
ATOM      8  P   UNL d   1      13.477  14.486   1.224 -0.25 -0.20    +0.473    17.228
ATOM      9  O   UNL d   1      13.740  13.551   2.352 -0.20 +0.04    -0.228    17.228
ATOM     10  O   UNL d   1      12.701  13.801   0.010 -0.91 +0.11    -0.303    17.228
ATOM     11  H   UNL d   1      11.807  14.185  -0.065 -0.42 -0.15    +0.222    17.228
ATOM     12  O   UNL d   1      14.761  15.083   0.504 +0.01 +0.30    -0.303    17.228
ATOM     13  H   UNL d   1      14.795  16.066   0.531 -0.29 -0.37    +0.222    17.228
ATOM     14  O   UNL d   1      13.286  18.376   1.388 -0.05 +0.16    -0.278    17.228
ATOM     15  P   UNL d   1      14.812  18.338   1.872 -0.03 -0.26    +0.473    17.228
ATOM     16  O   UNL d   1      15.264  19.455   2.760 -0.01 +0.06    -0.228    17.228
ATOM     17  O   UNL d   1      14.968  16.906   2.552 -0.03 +0.13    -0.303    17.228
ATOM     18  H   UNL d   1      14.254  16.303   2.270 +0.05 -0.10    +0.222    17.228
ATOM     19  O   UNL d   1      15.648  18.147   0.532 +0.01 +0.38    -0.303    17.228
ATOM     20  H   UNL d   1      15.512  17.263   0.145 -0.44 -0.58    +0.222    17.228
ATOM     21  O   UNL d   1       9.774  15.923   1.059 -0.24 +0.08    -0.278    17.228
ATOM     22  P   UNL d   1       9.797  14.956   2.328 -0.25 -0.11    +0.473    17.228
ATOM     23  O   UNL d   1      10.235  15.521   3.637 -0.19 +0.05    -0.228    17.228
ATOM     24  O   UNL d   1       8.317  14.369   2.316 -0.28 +0.08    -0.303    17.228
ATOM     25  H   UNL d   1       7.684  15.130   2.294 -0.45 -0.13    +0.222    17.228
ATOM     26  O   UNL d   1      10.650  13.716   1.777 -0.24 +0.07    -0.303    17.228
ATOM     27  H   UNL d   1      11.602  13.892   1.920 +0.10 -0.06    +0.222    17.228
ATOM     28  O   UNL d   1      13.205  19.784  -0.860 -0.08 +0.22    -0.278    17.228
ATOM     29  P   UNL d   1      12.754  21.129  -0.134 -0.00 -0.16    +0.473    17.228
ATOM     30  O   UNL d   1      11.590  21.825  -0.741 -0.00 +0.05    -0.228    17.228
ATOM     31  O   UNL d   1      12.581  20.594   1.364 -0.00 +0.09    -0.303    17.228
ATOM     32  H   UNL d   1      13.433  20.196   1.656 +0.01 -0.07    +0.222    17.228
ATOM     33  O   UNL d   1      14.121  21.943  -0.061 -0.00 +0.08    -0.303    17.228
ATOM     34  H   UNL d   1      14.836  21.341   0.262 +0.01 -0.07    +0.222    17.228
ATOM     35  O   UNL d   1       8.992  18.721   0.753 -0.05 +0.05    -0.278    17.228
ATOM     36  P   UNL d   1       7.677  17.928   1.186 -0.17 -0.08    +0.473    17.228
ATOM     37  O   UNL d   1       7.747  17.239   2.512 -0.22 +0.08    -0.228    17.228
ATOM     38  O   UNL d   1       6.567  19.067   1.098 -0.14 +0.02    -0.303    17.228
ATOM     39  H   UNL d   1       6.828  19.717   0.411 +0.07 -0.01    +0.222    17.228
ATOM     40  O   UNL d   1       7.394  17.018  -0.087 -0.19 +0.00    -0.303    17.228
ATOM     41  H   UNL d   1       7.894  17.328  -0.874 +0.10 +0.01    +0.222    17.228
ATOM     42  O   UNL d   1      10.415  19.760  -1.568 -0.03 +0.09    -0.278    17.228
ATOM     43  P   UNL d   1       9.206  19.026  -2.308 -0.08 -0.05    +0.473    17.228
ATOM     44  O   UNL d   1       9.319  17.556  -2.514 -0.24 +0.02    -0.228    17.228
ATOM     45  O   UNL d   1       7.947  19.468  -1.440 -0.05 -0.01    -0.303    17.228
ATOM     46  H   UNL d   1       7.964  19.059  -0.552 +0.08 -0.01    +0.222    17.228
ATOM     47  O   UNL d   1       9.008  19.899  -3.638 -0.05 +0.00    -0.303    17.228
ATOM     48  H   UNL d   1       9.650  20.639  -3.637 +0.03 -0.02    +0.222    17.228
TER
ENDMDL
MODEL       86
USER    Run = 86
USER    Cluster Rank = 4
USER    Number of conformations in this cluster = 1
USER  
USER    RMSD from reference structure       = 18.791 A
USER  
USER    Estimated Free Energy of Binding    =   +0.44 kcal/mol  [=(1)+(2)+(3)-(4)]
USER    
USER    (1) Final Intermolecular Energy     =   -6.72 kcal/mol
USER        vdW + Hbond + desolv Energy     =   -6.49 kcal/mol
USER        Electrostatic Energy            =   -0.23 kcal/mol
USER    (2) Final Total Internal Energy     =  -11.88 kcal/mol
USER    (3) Torsional Free Energy           =   +7.16 kcal/mol
USER    (4) Unbound System's Energy  [=(2)] =  -11.88 kcal/mol
USER    
USER    
USER  
USER    DPF = D:/Protein_go_brrr/autodock/final/mut_Y35F/IHP/dock.dpf
USER    NEWDPF move	IHP_ideal_opt.pdbqt
USER    NEWDPF about	0.035000 0.082000 -0.065000
USER    NEWDPF tran0	11.821117 9.269368 -15.892959
USER    NEWDPF axisangle0	-0.786101 -0.608782 0.106909 133.012860
USER    NEWDPF quaternion0	-0.720937 -0.558317 0.098047 0.398646
USER    NEWDPF dihe0	-172.24 -48.65 10.12 53.69 40.78 -134.56 12.05 -172.96 15.60 -99.35 13.41 87.11 108.48 155.32 140.51 -1.12 -66.84 175.32 8.37 -33.07 160.90 -40.30 -160.03 18.94 
USER  
USER                              x       y       z    vdW   Elec        q     RMS 
ATOM      1  C   UNL d   1      11.725   9.691 -17.565 -0.02 -0.02    +0.194    18.791
ATOM      2  C   UNL d   1      10.457   9.084 -16.963 -0.05 -0.02    +0.194    18.791
ATOM      3  C   UNL d   1      10.774   7.889 -16.061 -0.12 -0.02    +0.194    18.791
ATOM      4  C   UNL d   1      11.826   8.200 -14.999 -0.19 -0.03    +0.194    18.791
ATOM      5  C   UNL d   1      13.061   8.910 -15.538 -0.13 -0.05    +0.194    18.791
ATOM      6  C   UNL d   1      12.744  10.067 -16.489 -0.05 -0.03    +0.194    18.791
ATOM      7  O   UNL d   1      11.363  10.894 -18.248 -0.00 +0.02    -0.278    18.791
ATOM      8  P   UNL d   1      11.529  10.946 -19.836 -0.00 -0.03    +0.473    18.791
ATOM      9  O   UNL d   1      10.730  11.999 -20.520 +0.00 +0.01    -0.228    18.791
ATOM     10  O   UNL d   1      13.101  11.107 -20.055 +0.00 +0.02    -0.303    18.791
ATOM     11  H   UNL d   1      13.579  10.678 -19.321 +0.01 -0.02    +0.222    18.791
ATOM     12  O   UNL d   1      11.276   9.456 -20.326 -0.00 +0.02    -0.303    18.791
ATOM     13  H   UNL d   1      12.105   8.933 -20.416 +0.00 -0.02    +0.222    18.791
ATOM     14  O   UNL d   1       9.787  10.081 -16.181 -0.07 +0.02    -0.278    18.791
ATOM     15  P   UNL d   1       8.566  10.841 -16.884 -0.04 -0.02    +0.473    18.791
ATOM     16  O   UNL d   1       8.324  12.257 -16.464 -0.05 +0.01    -0.228    18.791
ATOM     17  O   UNL d   1       8.869  10.703 -18.442 -0.01 +0.02    -0.303    18.791
ATOM     18  H   UNL d   1       9.464  11.414 -18.749 +0.01 -0.01    +0.222    18.791
ATOM     19  O   UNL d   1       7.331   9.853 -16.711 -0.07 +0.02    -0.303    18.791
ATOM     20  H   UNL d   1       7.603   9.002 -16.320 +0.05 -0.02    +0.222    18.791
ATOM     21  O   UNL d   1      13.959  10.393 -17.160 -0.03 +0.04    -0.278    18.791
ATOM     22  P   UNL d   1      14.714   9.281 -18.019 -0.03 -0.07    +0.473    18.791
ATOM     23  O   UNL d   1      15.859   9.707 -18.874 -0.02 +0.03    -0.228    18.791
ATOM     24  O   UNL d   1      15.076   8.202 -16.907 -0.10 +0.10    -0.303    18.791
ATOM     25  H   UNL d   1      15.127   8.665 -16.032 -0.49 -0.14    +0.222    18.791
ATOM     26  O   UNL d   1      13.492   8.574 -18.780 -0.01 +0.03    -0.303    18.791
ATOM     27  H   UNL d   1      12.946   9.259 -19.217 +0.01 -0.02    +0.222    18.791
ATOM     28  O   UNL d   1       9.591   7.572 -15.339 -0.16 +0.05    -0.278    18.791
ATOM     29  P   UNL d   1       8.340   6.930 -16.086 -0.13 -0.09    +0.473    18.791
ATOM     30  O   UNL d   1       8.219   7.257 -17.530 -0.05 +0.02    -0.228    18.791
ATOM     31  O   UNL d   1       8.547   5.389 -15.706 -0.19 +0.07    -0.303    18.791
ATOM     32  H   UNL d   1       8.462   5.293 -14.729 -0.27 -0.12    +0.222    18.791
ATOM     33  O   UNL d   1       7.130   7.364 -15.147 -0.16 +0.10    -0.303    18.791
ATOM     34  H   UNL d   1       6.740   6.557 -14.731 -0.48 -0.14    +0.222    18.791
ATOM     35  O   UNL d   1      13.713   9.470 -14.400 -0.12 +0.10    -0.278    18.791
ATOM     36  P   UNL d   1      12.866   9.905 -13.120 -0.20 -0.12    +0.473    18.791
ATOM     37  O   UNL d   1      11.419  10.186 -13.370 -0.20 +0.03    -0.228    18.791
ATOM     38  O   UNL d   1      13.135   8.693 -12.123 -0.74 +0.10    -0.303    18.791
ATOM     39  H   UNL d   1      12.898   7.851 -12.570 +0.02 -0.06    +0.222    18.791
ATOM     40  O   UNL d   1      13.739  11.093 -12.523 -0.16 +0.08    -0.303    18.791
ATOM     41  H   UNL d   1      13.761  11.071 -11.541 -0.01 -0.09    +0.222    18.791
ATOM     42  O   UNL d   1      12.262   6.944 -14.467 -0.27 +0.05    -0.278    18.791
ATOM     43  P   UNL d   1      11.530   6.357 -13.177 -0.42 -0.08    +0.473    18.791
ATOM     44  O   UNL d   1      12.382   5.721 -12.134 -0.65 +0.06    -0.228    18.791
ATOM     45  O   UNL d   1      10.686   7.603 -12.658 -0.37 +0.05    -0.303    18.791
ATOM     46  H   UNL d   1      11.264   8.362 -12.443 +0.14 -0.02    +0.222    18.791
ATOM     47  O   UNL d   1      10.385   5.424 -13.798 -0.27 +0.04    -0.303    18.791
ATOM     48  H   UNL d   1       9.553   5.937 -13.869 -0.40 -0.08    +0.222    18.791
TER
ENDMDL
MODEL       87
USER    Run = 87
USER    Cluster Rank = 5
USER    Number of conformations in this cluster = 1
USER  
USER    RMSD from reference structure       = 19.205 A
USER  
USER    Estimated Free Energy of Binding    =   +0.50 kcal/mol  [=(1)+(2)+(3)-(4)]
USER    
USER    (1) Final Intermolecular Energy     =   -6.66 kcal/mol
USER        vdW + Hbond + desolv Energy     =   -6.01 kcal/mol
USER        Electrostatic Energy            =   -0.64 kcal/mol
USER    (2) Final Total Internal Energy     =  -12.59 kcal/mol
USER    (3) Torsional Free Energy           =   +7.16 kcal/mol
USER    (4) Unbound System's Energy  [=(2)] =  -12.59 kcal/mol
USER    
USER    
USER  
USER    DPF = D:/Protein_go_brrr/autodock/final/mut_Y35F/IHP/dock.dpf
USER    NEWDPF move	IHP_ideal_opt.pdbqt
USER    NEWDPF about	0.035000 0.082000 -0.065000
USER    NEWDPF tran0	16.618188 14.882699 -5.656591
USER    NEWDPF axisangle0	-0.222981 0.010129 0.974770 -172.698354
USER    NEWDPF quaternion0	-0.222529 0.010108 0.972792 -0.063676
USER    NEWDPF dihe0	179.89 -38.87 166.75 -6.72 22.65 151.68 -19.18 -106.53 53.33 145.39 -6.92 164.65 172.41 175.86 168.48 -70.71 -102.81 -37.57 -24.52 13.89 -14.84 8.47 -14.50 9.79 
USER  
USER                              x       y       z    vdW   Elec        q     RMS 
ATOM      1  C   UNL d   1      15.272  15.951  -5.480 +0.02 -0.15    +0.194    19.205
ATOM      2  C   UNL d   1      16.649  16.581  -5.264 -0.11 -0.12    +0.194    19.205
ATOM      3  C   UNL d   1      17.560  15.680  -4.428 -0.14 -0.10    +0.194    19.205
ATOM      4  C   UNL d   1      17.656  14.255  -4.969 -0.16 -0.06    +0.194    19.205
ATOM      5  C   UNL d   1      16.310  13.628  -5.308 -0.20 -0.06    +0.194    19.205
ATOM      6  C   UNL d   1      15.375  14.552  -6.090 -0.16 -0.08    +0.194    19.205
ATOM      7  O   UNL d   1      14.548  16.767  -6.405 -0.09 +0.17    -0.278    19.205
ATOM      8  P   UNL d   1      12.963  16.877  -6.240 -0.10 -0.29    +0.473    19.205
ATOM      9  O   UNL d   1      12.188  16.774  -7.506 -0.08 +0.05    -0.228    19.205
ATOM     10  O   UNL d   1      12.603  15.733  -5.188 -0.15 +0.26    -0.303    19.205
ATOM     11  H   UNL d   1      13.395  15.509  -4.665 -0.34 -0.31    +0.222    19.205
ATOM     12  O   UNL d   1      12.728  18.198  -5.388 -0.09 +0.27    -0.303    19.205
ATOM     13  H   UNL d   1      12.808  18.051  -4.419 -0.48 -0.42    +0.222    19.205
ATOM     14  O   UNL d   1      17.267  16.801  -6.538 -0.02 +0.09    -0.278    19.205
ATOM     15  P   UNL d   1      18.191  18.102  -6.670 +0.00 -0.11    +0.473    19.205
ATOM     16  O   UNL d   1      17.912  19.009  -7.828 -0.00 +0.04    -0.228    19.205
ATOM     17  O   UNL d   1      18.036  18.833  -5.263 -0.01 +0.10    -0.303    19.205
ATOM     18  H   UNL d   1      18.489  18.334  -4.556 +0.02 -0.08    +0.222    19.205
ATOM     19  O   UNL d   1      19.678  17.545  -6.579 -0.00 +0.05    -0.303    19.205
ATOM     20  H   UNL d   1      19.871  17.177  -5.697 +0.01 -0.04    +0.222    19.205
ATOM     21  O   UNL d   1      14.074  13.972  -6.028 -0.25 +0.10    -0.278    19.205
ATOM     22  P   UNL d   1      13.356  13.492  -7.369 -0.17 -0.12    +0.473    19.205
ATOM     23  O   UNL d   1      11.878  13.291  -7.344 -0.31 +0.04    -0.228    19.205
ATOM     24  O   UNL d   1      13.864  14.577  -8.417 -0.04 +0.07    -0.303    19.205
ATOM     25  H   UNL d   1      13.813  15.468  -7.987 +0.06 -0.06    +0.222    19.205
ATOM     26  O   UNL d   1      14.233  12.211  -7.768 -0.20 +0.09    -0.303    19.205
ATOM     27  H   UNL d   1      15.114  12.280  -7.346 +0.12 -0.06    +0.222    19.205
ATOM     28  O   UNL d   1      18.878  16.206  -4.514 -0.04 +0.09    -0.278    19.205
ATOM     29  P   UNL d   1      19.636  16.695  -3.201 -0.03 -0.15    +0.473    19.205
ATOM     30  O   UNL d   1      19.566  18.153  -2.927 -0.02 +0.07    -0.228    19.205
ATOM     31  O   UNL d   1      18.976  15.719  -2.118 -0.11 +0.13    -0.303    19.205
ATOM     32  H   UNL d   1      18.769  14.860  -2.554 +0.04 -0.09    +0.222    19.205
ATOM     33  O   UNL d   1      21.086  16.069  -3.400 -0.01 +0.05    -0.303    19.205
ATOM     34  H   UNL d   1      20.994  15.120  -3.662 +0.03 -0.04    +0.222    19.205
ATOM     35  O   UNL d   1      16.602  12.515  -6.151 -0.16 +0.08    -0.278    19.205
ATOM     36  P   UNL d   1      16.266  11.032  -5.671 -0.31 -0.17    +0.473    19.205
ATOM     37  O   UNL d   1      16.921  10.603  -4.396 -0.52 +0.10    -0.228    19.205
ATOM     38  O   UNL d   1      14.675  11.060  -5.612 -0.39 +0.09    -0.303    19.205
ATOM     39  H   UNL d   1      14.371  11.993  -5.612 +0.14 -0.07    +0.222    19.205
ATOM     40  O   UNL d   1      16.587  10.173  -6.971 -0.31 +0.11    -0.303    19.205
ATOM     41  H   UNL d   1      17.441   9.694  -6.890 -0.47 -0.15    +0.222    19.205
ATOM     42  O   UNL d   1      18.244  13.458  -3.936 -0.15 +0.10    -0.278    19.205
ATOM     43  P   UNL d   1      19.790  13.081  -4.038 -0.09 -0.12    +0.473    19.205
ATOM     44  O   UNL d   1      20.587  13.736  -5.113 -0.04 +0.04    -0.228    19.205
ATOM     45  O   UNL d   1      20.319  13.373  -2.566 -0.11 +0.06    -0.303    19.205
ATOM     46  H   UNL d   1      20.483  14.328  -2.427 +0.05 -0.04    +0.222    19.205
ATOM     47  O   UNL d   1      19.775  11.478  -4.067 -0.23 +0.07    -0.303    19.205
ATOM     48  H   UNL d   1      18.903  11.158  -3.757 -0.41 -0.10    +0.222    19.205
TER
ENDMDL
MODEL      100
USER    Run = 100
USER    Cluster Rank = 6
USER    Number of conformations in this cluster = 1
USER  
USER    RMSD from reference structure       = 12.628 A
USER  
USER    Estimated Free Energy of Binding    =   +0.54 kcal/mol  [=(1)+(2)+(3)-(4)]
USER    
USER    (1) Final Intermolecular Energy     =   -6.62 kcal/mol
USER        vdW + Hbond + desolv Energy     =   -6.43 kcal/mol
USER        Electrostatic Energy            =   -0.19 kcal/mol
USER    (2) Final Total Internal Energy     =  -14.51 kcal/mol
USER    (3) Torsional Free Energy           =   +7.16 kcal/mol
USER    (4) Unbound System's Energy  [=(2)] =  -14.51 kcal/mol
USER    
USER    
USER  
USER    DPF = D:/Protein_go_brrr/autodock/final/mut_Y35F/IHP/dock.dpf
USER    NEWDPF move	IHP_ideal_opt.pdbqt
USER    NEWDPF about	0.035000 0.082000 -0.065000
USER    NEWDPF tran0	6.066085 -13.931973 5.095613
USER    NEWDPF axisangle0	0.591826 0.799760 0.100629 142.507144
USER    NEWDPF quaternion0	0.560430 0.757333 0.095290 0.321380
USER    NEWDPF dihe0	-127.19 24.62 165.57 16.80 25.30 -166.30 33.79 -116.35 -55.87 -43.84 109.09 176.34 -150.15 74.54 135.29 -96.81 -172.39 -141.68 25.59 -33.16 -25.39 40.06 9.06 -29.85 
USER  
USER                              x       y       z    vdW   Elec        q     RMS 
ATOM      1  C   UNL d   1       4.750 -12.860   5.418 -0.20 -0.06    +0.194    12.628
ATOM      2  C   UNL d   1       4.365 -14.314   5.137 -0.23 -0.07    +0.194    12.628
ATOM      3  C   UNL d   1       5.158 -14.893   3.963 -0.17 -0.07    +0.194    12.628
ATOM      4  C   UNL d   1       6.667 -14.714   4.110 -0.20 -0.04    +0.194    12.628
ATOM      5  C   UNL d   1       7.089 -13.304   4.504 -0.26 -0.03    +0.194    12.628
ATOM      6  C   UNL d   1       6.255 -12.701   5.636 -0.20 -0.03    +0.194    12.628
ATOM      7  O   UNL d   1       4.099 -12.451   6.623 -0.12 +0.05    -0.278    12.628
ATOM      8  P   UNL d   1       2.725 -11.645   6.508 -0.22 -0.10    +0.473    12.628
ATOM      9  O   UNL d   1       2.847 -10.168   6.637 -0.37 +0.01    -0.228    12.628
ATOM     10  O   UNL d   1       2.123 -12.106   5.104 -0.33 +0.14    -0.303    12.628
ATOM     11  H   UNL d   1       1.764 -13.009   5.183 -0.27 -0.11    +0.222    12.628
ATOM     12  O   UNL d   1       1.744 -12.353   7.539 -0.13 +0.05    -0.303    12.628
ATOM     13  H   UNL d   1       2.023 -13.267   7.771 +0.08 -0.03    +0.222    12.628
ATOM     14  O   UNL d   1       4.634 -15.102   6.303 -0.07 +0.06    -0.278    12.628
ATOM     15  P   UNL d   1       3.388 -15.411   7.261 -0.05 -0.08    +0.473    12.628
ATOM     16  O   UNL d   1       3.183 -16.840   7.657 -0.05 +0.03    -0.228    12.628
ATOM     17  O   UNL d   1       3.612 -14.450   8.511 -0.01 +0.03    -0.303    12.628
ATOM     18  H   UNL d   1       3.474 -13.515   8.265 +0.05 -0.03    +0.222    12.628
ATOM     19  O   UNL d   1       2.152 -14.715   6.541 -0.16 +0.06    -0.303    12.628
ATOM     20  H   UNL d   1       2.383 -13.830   6.203 +0.09 -0.06    +0.222    12.628
ATOM     21  O   UNL d   1       6.531 -11.302   5.651 -0.31 +0.03    -0.278    12.628
ATOM     22  P   UNL d   1       6.978 -10.597   7.010 -0.04 -0.07    +0.473    12.628
ATOM     23  O   UNL d   1       7.570  -9.231   6.934 -0.20 +0.04    -0.228    12.628
ATOM     24  O   UNL d   1       5.650 -10.701   7.882 -0.08 +0.03    -0.303    12.628
ATOM     25  H   UNL d   1       4.878 -10.509   7.292 +0.09 -0.02    +0.222    12.628
ATOM     26  O   UNL d   1       7.900 -11.727   7.675 -0.03 +0.04    -0.303    12.628
ATOM     27  H   UNL d   1       8.188 -12.356   6.982 +0.06 -0.03    +0.222    12.628
ATOM     28  O   UNL d   1       4.944 -16.299   3.954 -0.18 +0.08    -0.278    12.628
ATOM     29  P   UNL d   1       4.998 -17.112   2.586 -0.18 -0.11    +0.473    12.628
ATOM     30  O   UNL d   1       3.774 -17.884   2.251 -0.24 +0.05    -0.228    12.628
ATOM     31  O   UNL d   1       5.415 -15.939   1.580 -0.26 +0.10    -0.303    12.628
ATOM     32  H   UNL d   1       6.396 -15.852   1.589 +0.07 -0.05    +0.222    12.628
ATOM     33  O   UNL d   1       6.350 -17.938   2.742 -0.03 +0.04    -0.303    12.628
ATOM     34  H   UNL d   1       7.096 -17.308   2.894 +0.05 -0.03    +0.222    12.628
ATOM     35  O   UNL d   1       8.427 -13.420   4.983 -0.10 +0.05    -0.278    12.628
ATOM     36  P   UNL d   1       9.515 -12.315   4.610 -0.22 -0.18    +0.473    12.628
ATOM     37  O   UNL d   1      10.790 -12.835   4.028 -0.19 +0.09    -0.228    12.628
ATOM     38  O   UNL d   1       8.690 -11.362   3.636 -0.93 +0.10    -0.303    12.628
ATOM     39  H   UNL d   1       9.180 -11.266   2.791 -0.39 -0.15    +0.222    12.628
ATOM     40  O   UNL d   1       9.625 -11.479   5.959 -0.15 +0.13    -0.303    12.628
ATOM     41  H   UNL d   1       8.940 -10.776   6.009 +0.07 -0.10    +0.222    12.628
ATOM     42  O   UNL d   1       7.243 -14.984   2.828 -0.22 +0.04    -0.278    12.628
ATOM     43  P   UNL d   1       8.621 -15.784   2.755 -0.08 -0.07    +0.473    12.628
ATOM     44  O   UNL d   1       9.874 -14.985   2.645 -0.13 +0.04    -0.228    12.628
ATOM     45  O   UNL d   1       8.554 -16.715   4.044 -0.01 +0.04    -0.303    12.628
ATOM     46  H   UNL d   1       7.642 -17.025   4.213 +0.03 -0.03    +0.222    12.628
ATOM     47  O   UNL d   1       8.369 -16.840   1.576 -0.06 +0.04    -0.303    12.628
ATOM     48  H   UNL d   1       7.440 -16.771   1.274 +0.06 -0.03    +0.222    12.628
TER
ENDMDL
MODEL       83
USER    Run = 83
USER    Cluster Rank = 7
USER    Number of conformations in this cluster = 1
USER  
USER    RMSD from reference structure       = 15.209 A
USER  
USER    Estimated Free Energy of Binding    =   +0.59 kcal/mol  [=(1)+(2)+(3)-(4)]
USER    
USER    (1) Final Intermolecular Energy     =   -6.57 kcal/mol
USER        vdW + Hbond + desolv Energy     =   -6.17 kcal/mol
USER        Electrostatic Energy            =   -0.40 kcal/mol
USER    (2) Final Total Internal Energy     =   -9.92 kcal/mol
USER    (3) Torsional Free Energy           =   +7.16 kcal/mol
USER    (4) Unbound System's Energy  [=(2)] =   -9.92 kcal/mol
USER    
USER    
USER  
USER    DPF = D:/Protein_go_brrr/autodock/final/mut_Y35F/IHP/dock.dpf
USER    NEWDPF move	IHP_ideal_opt.pdbqt
USER    NEWDPF about	0.035000 0.082000 -0.065000
USER    NEWDPF tran0	5.337488 -16.801778 -5.313043
USER    NEWDPF axisangle0	-0.137912 0.642821 -0.753499 -166.308617
USER    NEWDPF quaternion0	-0.136929 0.638239 -0.748127 -0.119196
USER    NEWDPF dihe0	132.82 59.97 26.70 163.51 48.78 45.47 -127.44 -92.50 22.92 105.16 -10.08 -125.51 156.94 -83.02 133.29 -2.77 -74.44 -48.82 43.15 14.71 154.89 25.04 -172.72 167.85 
USER  
USER                              x       y       z    vdW   Elec        q     RMS 
ATOM      1  C   UNL d   1       4.446 -17.834  -4.253 -0.07 -0.05    +0.194    15.209
ATOM      2  C   UNL d   1       5.477 -16.927  -3.579 -0.08 -0.06    +0.194    15.209
ATOM      3  C   UNL d   1       6.792 -16.886  -4.361 -0.04 -0.07    +0.194    15.209
ATOM      4  C   UNL d   1       6.604 -16.549  -5.838 -0.05 -0.07    +0.194    15.209
ATOM      5  C   UNL d   1       5.505 -17.351  -6.522 -0.04 -0.05    +0.194    15.209
ATOM      6  C   UNL d   1       4.210 -17.443  -5.712 -0.10 -0.06    +0.194    15.209
ATOM      7  O   UNL d   1       3.203 -17.684  -3.565 -0.13 +0.07    -0.278    15.209
ATOM      8  P   UNL d   1       3.000 -18.463  -2.185 -0.14 -0.07    +0.473    15.209
ATOM      9  O   UNL d   1       1.592 -18.823  -1.865 -0.20 -0.00    -0.228    15.209
ATOM     10  O   UNL d   1       3.959 -19.731  -2.312 -0.03 +0.04    -0.303    15.209
ATOM     11  H   UNL d   1       4.099 -19.942  -3.254 +0.03 -0.03    +0.222    15.209
ATOM     12  O   UNL d   1       3.755 -17.583  -1.099 -0.12 +0.10    -0.303    15.209
ATOM     13  H   UNL d   1       3.971 -16.678  -1.418 -0.43 -0.12    +0.222    15.209
ATOM     14  O   UNL d   1       4.950 -15.597  -3.503 -0.16 +0.09    -0.278    15.209
ATOM     15  P   UNL d   1       5.370 -14.733  -2.222 -0.20 -0.14    +0.473    15.209
ATOM     16  O   UNL d   1       5.697 -15.494  -0.975 -0.28 +0.07    -0.228    15.209
ATOM     17  O   UNL d   1       6.586 -13.842  -2.737 -0.32 +0.19    -0.303    15.209
ATOM     18  H   UNL d   1       7.374 -14.390  -2.913 -0.02 -0.21    +0.222    15.209
ATOM     19  O   UNL d   1       4.216 -13.647  -2.080 -0.95 +0.03    -0.303    15.209
ATOM     20  H   UNL d   1       3.601 -13.868  -1.356 -0.31 -0.05    +0.222    15.209
ATOM     21  O   UNL d   1       3.428 -18.480  -6.302 -0.05 +0.08    -0.278    15.209
ATOM     22  P   UNL d   1       4.070 -19.922  -6.532 +0.01 -0.09    +0.473    15.209
ATOM     23  O   UNL d   1       3.152 -21.069  -6.790 -0.01 +0.04    -0.228    15.209
ATOM     24  O   UNL d   1       5.117 -19.631  -7.694 -0.00 +0.05    -0.303    15.209
ATOM     25  H   UNL d   1       4.877 -18.767  -8.116 +0.02 -0.04    +0.222    15.209
ATOM     26  O   UNL d   1       5.026 -20.061  -5.252 -0.00 +0.05    -0.303    15.209
ATOM     27  H   UNL d   1       5.925 -20.311  -5.548 +0.00 -0.03    +0.222    15.209
ATOM     28  O   UNL d   1       7.574 -15.825  -3.828 -0.09 +0.17    -0.278    15.209
ATOM     29  P   UNL d   1       9.126 -16.036  -3.538 -0.06 -0.34    +0.473    15.209
ATOM     30  O   UNL d   1       9.533 -17.426  -3.210 -0.02 +0.08    -0.228    15.209
ATOM     31  O   UNL d   1       9.748 -15.391  -4.865 -0.09 +0.34    -0.303    15.209
ATOM     32  H   UNL d   1       9.625 -16.025  -5.609 +0.03 -0.16    +0.222    15.209
ATOM     33  O   UNL d   1       9.415 -14.922  -2.437 -0.53 +0.28    -0.303    15.209
ATOM     34  H   UNL d   1       8.841 -14.137  -2.616 -0.48 -0.46    +0.222    15.209
ATOM     35  O   UNL d   1       5.199 -16.643  -7.722 -0.07 +0.09    -0.278    15.209
ATOM     36  P   UNL d   1       5.092 -15.051  -7.713 -0.13 -0.19    +0.473    15.209
ATOM     37  O   UNL d   1       4.633 -14.444  -6.426 -0.41 +0.07    -0.228    15.209
ATOM     38  O   UNL d   1       6.562 -14.623  -8.151 -0.12 +0.15    -0.303    15.209
ATOM     39  H   UNL d   1       7.215 -15.135  -7.627 +0.05 -0.12    +0.222    15.209
ATOM     40  O   UNL d   1       4.208 -14.763  -9.003 -0.19 +0.14    -0.303    15.209
ATOM     41  H   UNL d   1       3.306 -15.144  -8.920 -0.40 -0.17    +0.222    15.209
ATOM     42  O   UNL d   1       7.833 -16.871  -6.497 -0.01 +0.11    -0.278    15.209
ATOM     43  P   UNL d   1       8.403 -18.357  -6.383 +0.01 -0.11    +0.473    15.209
ATOM     44  O   UNL d   1       7.650 -19.317  -5.528 +0.00 +0.04    -0.228    15.209
ATOM     45  O   UNL d   1       8.528 -18.800  -7.906 +0.00 +0.05    -0.303    15.209
ATOM     46  H   UNL d   1       7.675 -19.125  -8.256 +0.00 -0.04    +0.222    15.209
ATOM     47  O   UNL d   1       9.938 -18.130  -5.981 +0.00 +0.08    -0.303    15.209
ATOM     48  H   UNL d   1       9.983 -17.556  -5.189 +0.02 -0.08    +0.222    15.209
TER
ENDMDL
MODEL       37
USER    Run = 37
USER    Cluster Rank = 8
USER    Number of conformations in this cluster = 1
USER  
USER    RMSD from reference structure       = 16.040 A
USER  
USER    Estimated Free Energy of Binding    =   +0.59 kcal/mol  [=(1)+(2)+(3)-(4)]
USER    
USER    (1) Final Intermolecular Energy     =   -6.57 kcal/mol
USER        vdW + Hbond + desolv Energy     =   -6.30 kcal/mol
USER        Electrostatic Energy            =   -0.27 kcal/mol
USER    (2) Final Total Internal Energy     =  -13.38 kcal/mol
USER    (3) Torsional Free Energy           =   +7.16 kcal/mol
USER    (4) Unbound System's Energy  [=(2)] =  -13.38 kcal/mol
USER    
USER    
USER  
USER    DPF = D:/Protein_go_brrr/autodock/final/mut_Y35F/IHP/dock.dpf
USER    NEWDPF move	IHP_ideal_opt.pdbqt
USER    NEWDPF about	0.035000 0.082000 -0.065000
USER    NEWDPF tran0	10.323976 15.924334 3.526250
USER    NEWDPF axisangle0	0.508627 -0.847566 -0.151430 112.046891
USER    NEWDPF quaternion0	0.421787 -0.702858 -0.125576 0.558854
USER    NEWDPF dihe0	119.48 106.22 138.74 2.40 63.58 -120.59 -14.41 -90.88 33.12 77.04 -156.67 164.20 -33.36 73.98 -68.23 -86.27 -149.58 167.59 35.98 -26.99 172.98 12.43 5.16 180.00 
USER  
USER                              x       y       z    vdW   Elec        q     RMS 
ATOM      1  C   UNL d   1      11.488  15.326   2.399 -0.16 -0.05    +0.194    16.040
ATOM      2  C   UNL d   1      11.851  15.159   3.876 -0.09 -0.03    +0.194    16.040
ATOM      3  C   UNL d   1      11.527  16.416   4.685 -0.09 -0.03    +0.194    16.040
ATOM      4  C   UNL d   1      10.091  16.900   4.494 -0.20 -0.05    +0.194    16.040
ATOM      5  C   UNL d   1       9.648  16.972   3.039 -0.19 -0.05    +0.194    16.040
ATOM      6  C   UNL d   1      10.028  15.740   2.214 -0.25 -0.05    +0.194    16.040
ATOM      7  O   UNL d   1      11.658  14.062   1.752 -0.24 +0.08    -0.278    16.040
ATOM      8  P   UNL d   1      13.105  13.685   1.191 -0.30 -0.13    +0.473    16.040
ATOM      9  O   UNL d   1      14.228  14.482   1.756 -0.21 +0.08    -0.228    16.040
ATOM     10  O   UNL d   1      13.237  12.122   1.481 -0.38 +0.05    -0.303    16.040
ATOM     11  H   UNL d   1      12.833  11.914   2.344 -0.02 -0.05    +0.222    16.040
ATOM     12  O   UNL d   1      12.957  13.719  -0.390 -0.73 +0.07    -0.303    16.040
ATOM     13  H   UNL d   1      12.698  14.604  -0.734 -0.30 -0.21    +0.222    16.040
ATOM     14  O   UNL d   1      11.106  14.062   4.419 -0.12 +0.03    -0.278    16.040
ATOM     15  P   UNL d   1      11.912  12.700   4.661 -0.04 -0.02    +0.473    16.040
ATOM     16  O   UNL d   1      11.781  12.073   6.014 -0.05 -0.01    -0.228    16.040
ATOM     17  O   UNL d   1      11.419  11.743   3.487 -0.15 +0.06    -0.303    16.040
ATOM     18  H   UNL d   1      11.373  12.223   2.638 -0.24 -0.09    +0.222    16.040
ATOM     19  O   UNL d   1      13.399  13.031   4.201 -0.05 +0.01    -0.303    16.040
ATOM     20  H   UNL d   1      13.430  13.335   3.275 +0.09 -0.02    +0.222    16.040
ATOM     21  O   UNL d   1       9.864  16.095   0.843 -0.23 +0.09    -0.278    16.040
ATOM     22  P   UNL d   1      10.877  17.123   0.165 -0.12 -0.26    +0.473    16.040
ATOM     23  O   UNL d   1      11.358  18.278   0.977 -0.05 +0.10    -0.228    16.040
ATOM     24  O   UNL d   1      12.024  16.151  -0.359 -0.10 +0.34    -0.303    16.040
ATOM     25  H   UNL d   1      11.797  15.228  -0.080 -0.41 -0.20    +0.222    16.040
ATOM     26  O   UNL d   1      10.109  17.490  -1.193 -0.19 +0.14    -0.303    16.040
ATOM     27  H   UNL d   1       9.281  17.965  -0.976 +0.09 -0.05    +0.222    16.040
ATOM     28  O   UNL d   1      11.632  16.079   6.062 -0.09 +0.03    -0.278    16.040
ATOM     29  P   UNL d   1      12.620  16.886   7.015 -0.02 -0.03    +0.473    16.040
ATOM     30  O   UNL d   1      13.787  16.120   7.524 -0.01 +0.00    -0.228    16.040
ATOM     31  O   UNL d   1      12.931  18.152   6.087 -0.01 +0.03    -0.303    16.040
ATOM     32  H   UNL d   1      12.109  18.395   5.601 +0.03 -0.03    +0.222    16.040
ATOM     33  O   UNL d   1      11.622  17.484   8.102 -0.06 +0.02    -0.303    16.040
ATOM     34  H   UNL d   1      10.748  17.659   7.674 -0.00 -0.04    +0.222    16.040
ATOM     35  O   UNL d   1       8.224  17.033   3.070 -0.20 +0.10    -0.278    16.040
ATOM     36  P   UNL d   1       7.442  18.064   2.136 -0.17 -0.10    +0.473    16.040
ATOM     37  O   UNL d   1       6.878  19.263   2.830 -0.18 +0.02    -0.228    16.040
ATOM     38  O   UNL d   1       8.540  18.403   1.034 -0.07 +0.05    -0.303    16.040
ATOM     39  H   UNL d   1       9.424  18.438   1.461 +0.08 -0.05    +0.222    16.040
ATOM     40  O   UNL d   1       6.414  17.120   1.375 -0.31 +0.08    -0.303    16.040
ATOM     41  H   UNL d   1       6.091  16.393   1.952 -0.44 -0.15    +0.222    16.040
ATOM     42  O   UNL d   1      10.029  18.230   5.019 -0.12 +0.06    -0.278    16.040
ATOM     43  P   UNL d   1      10.798  19.399   4.253 -0.01 -0.08    +0.473    16.040
ATOM     44  O   UNL d   1      11.373  20.498   5.078 -0.01 +0.03    -0.228    16.040
ATOM     45  O   UNL d   1      11.872  18.602   3.390 -0.01 +0.07    -0.303    16.040
ATOM     46  H   UNL d   1      11.861  18.887   2.454 +0.03 -0.06    +0.222    16.040
ATOM     47  O   UNL d   1       9.749  19.853   3.130 -0.03 +0.05    -0.303    16.040
ATOM     48  H   UNL d   1       9.067  19.157   3.025 +0.06 -0.04    +0.222    16.040
TER
ENDMDL
MODEL       68
USER    Run = 68
USER    Cluster Rank = 9
USER    Number of conformations in this cluster = 1
USER  
USER    RMSD from reference structure       = 18.981 A
USER  
USER    Estimated Free Energy of Binding    =   +0.83 kcal/mol  [=(1)+(2)+(3)-(4)]
USER    
USER    (1) Final Intermolecular Energy     =   -6.33 kcal/mol
USER        vdW + Hbond + desolv Energy     =   -5.49 kcal/mol
USER        Electrostatic Energy            =   -0.83 kcal/mol
USER    (2) Final Total Internal Energy     =  -13.08 kcal/mol
USER    (3) Torsional Free Energy           =   +7.16 kcal/mol
USER    (4) Unbound System's Energy  [=(2)] =  -13.08 kcal/mol
USER    
USER    
USER  
USER    DPF = D:/Protein_go_brrr/autodock/final/mut_Y35F/IHP/dock.dpf
USER    NEWDPF move	IHP_ideal_opt.pdbqt
USER    NEWDPF about	0.035000 0.082000 -0.065000
USER    NEWDPF tran0	-18.716139 -7.919659 10.576194
USER    NEWDPF axisangle0	0.726897 -0.685819 -0.035676 175.380480
USER    NEWDPF quaternion0	0.726307 -0.685262 -0.035647 0.040302
USER    NEWDPF dihe0	117.46 30.89 -80.44 -154.71 98.52 133.20 -73.81 163.58 42.19 84.16 4.75 180.00 165.73 46.33 -103.71 138.25 131.17 150.98 61.43 24.95 -15.32 9.41 -8.13 -16.32 
USER  
USER                              x       y       z    vdW   Elec        q     RMS 
ATOM      1  C   UNL d   1     -17.754  -9.027   9.664 -0.20 -0.02    +0.194    18.981
ATOM      2  C   UNL d   1     -17.025  -7.782  10.172 -0.13 -0.03    +0.194    18.981
ATOM      3  C   UNL d   1     -17.868  -6.518   9.988 -0.12 -0.03    +0.194    18.981
ATOM      4  C   UNL d   1     -19.274  -6.642  10.570 -0.04 -0.02    +0.194    18.981
ATOM      5  C   UNL d   1     -19.995  -7.926  10.182 -0.04 -0.01    +0.194    18.981
ATOM      6  C   UNL d   1     -19.132  -9.184  10.307 -0.09 -0.01    +0.194    18.981
ATOM      7  O   UNL d   1     -16.982 -10.175  10.027 -0.18 -0.01    -0.278    18.981
ATOM      8  P   UNL d   1     -15.499 -10.305   9.449 -0.23 +0.10    +0.473    18.981
ATOM      9  O   UNL d   1     -15.082 -11.687   9.087 -0.35 -0.06    -0.228    18.981
ATOM     10  O   UNL d   1     -15.476  -9.298   8.212 -0.37 +0.03    -0.303    18.981
ATOM     11  H   UNL d   1     -16.317  -9.361   7.723 -0.24 -0.10    +0.222    18.981
ATOM     12  O   UNL d   1     -14.577  -9.556  10.504 -0.08 -0.23    -0.303    18.981
ATOM     13  H   UNL d   1     -15.086  -8.998  11.134 +0.07 +0.10    +0.222    18.981
ATOM     14  O   UNL d   1     -16.743  -7.943  11.568 -0.04 +0.04    -0.278    18.981
ATOM     15  P   UNL d   1     -15.528  -7.081  12.157 +0.01 -0.27    +0.473    18.981
ATOM     16  O   UNL d   1     -15.889  -5.853  12.932 -0.06 +0.23    -0.228    18.981
ATOM     17  O   UNL d   1     -14.691  -8.129  13.016 -0.13 +0.03    -0.303    18.981
ATOM     18  H   UNL d   1     -13.948  -7.693  13.476 -0.35 -0.17    +0.222    18.981
ATOM     19  O   UNL d   1     -14.567  -6.849  10.911 -0.23 +0.16    -0.303    18.981
ATOM     20  H   UNL d   1     -14.131  -5.977  10.950 -0.46 -0.39    +0.222    18.981
ATOM     21  O   UNL d   1     -19.809 -10.220   9.600 -0.11 +0.01    -0.278    18.981
ATOM     22  P   UNL d   1     -20.313 -11.515  10.383 +0.01 -0.02    +0.473    18.981
ATOM     23  O   UNL d   1     -19.296 -12.515  10.820 -0.09 +0.00    -0.228    18.981
ATOM     24  O   UNL d   1     -21.166 -10.871  11.562 -0.02 +0.01    -0.303    18.981
ATOM     25  H   UNL d   1     -21.576 -10.035  11.225 +0.02 -0.01    +0.222    18.981
ATOM     26  O   UNL d   1     -21.460 -12.061   9.405 -0.07 +0.02    -0.303    18.981
ATOM     27  H   UNL d   1     -21.978 -11.305   9.063 +0.03 -0.02    +0.222    18.981
ATOM     28  O   UNL d   1     -17.244  -5.476  10.728 -0.09 +0.09    -0.278    18.981
ATOM     29  P   UNL d   1     -16.737  -4.158   9.990 -0.26 -0.15    +0.473    18.981
ATOM     30  O   UNL d   1     -17.476  -2.913  10.324 -0.29 +0.03    -0.228    18.981
ATOM     31  O   UNL d   1     -15.183  -4.205  10.370 -0.10 +0.33    -0.303    18.981
ATOM     32  H   UNL d   1     -15.075  -4.758  11.178 -0.40 -0.48    +0.222    18.981
ATOM     33  O   UNL d   1     -16.740  -4.608   8.463 -0.40 +0.02    -0.303    18.981
ATOM     34  H   UNL d   1     -15.917  -4.274   8.028 -0.38 -0.02    +0.222    18.981
ATOM     35  O   UNL d   1     -21.071  -8.061  11.108 -0.01 +0.01    -0.278    18.981
ATOM     36  P   UNL d   1     -22.575  -8.161  10.585 +0.00 -0.02    +0.473    18.981
ATOM     37  O   UNL d   1     -23.609  -8.404  11.638 -0.00 +0.01    -0.228    18.981
ATOM     38  O   UNL d   1     -22.743  -6.780   9.809 -0.00 +0.01    -0.303    18.981
ATOM     39  H   UNL d   1     -22.144  -6.113  10.209 +0.02 -0.01    +0.222    18.981
ATOM     40  O   UNL d   1     -22.460  -9.241   9.424 -0.02 +0.02    -0.303    18.981
ATOM     41  H   UNL d   1     -21.885  -9.995   9.683 +0.03 -0.01    +0.222    18.981
ATOM     42  O   UNL d   1     -20.039  -5.553  10.043 -0.05 +0.01    -0.278    18.981
ATOM     43  P   UNL d   1     -20.828  -4.604  11.053 -0.02 -0.02    +0.473    18.981
ATOM     44  O   UNL d   1     -21.899  -3.738  10.486 -0.04 +0.00    -0.228    18.981
ATOM     45  O   UNL d   1     -21.336  -5.624  12.164 -0.00 +0.01    -0.303    18.981
ATOM     46  H   UNL d   1     -22.015  -6.231  11.809 +0.01 -0.01    +0.222    18.981
ATOM     47  O   UNL d   1     -19.654  -3.836  11.828 -0.05 +0.02    -0.303    18.981
ATOM     48  H   UNL d   1     -18.788  -4.154  11.498 +0.06 -0.03    +0.222    18.981
TER
ENDMDL
MODEL       36
USER    Run = 36
USER    Cluster Rank = 10
USER    Number of conformations in this cluster = 1
USER  
USER    RMSD from reference structure       = 12.869 A
USER  
USER    Estimated Free Energy of Binding    =   +1.11 kcal/mol  [=(1)+(2)+(3)-(4)]
USER    
USER    (1) Final Intermolecular Energy     =   -6.05 kcal/mol
USER        vdW + Hbond + desolv Energy     =   -5.66 kcal/mol
USER        Electrostatic Energy            =   -0.39 kcal/mol
USER    (2) Final Total Internal Energy     =  -13.98 kcal/mol
USER    (3) Torsional Free Energy           =   +7.16 kcal/mol
USER    (4) Unbound System's Energy  [=(2)] =  -13.98 kcal/mol
USER    
USER    
USER  
USER    DPF = D:/Protein_go_brrr/autodock/final/mut_Y35F/IHP/dock.dpf
USER    NEWDPF move	IHP_ideal_opt.pdbqt
USER    NEWDPF about	0.035000 0.082000 -0.065000
USER    NEWDPF tran0	-8.785813 13.773121 1.236252
USER    NEWDPF axisangle0	0.237869 0.962587 -0.129789 179.711192
USER    NEWDPF quaternion0	0.237868 0.962584 -0.129788 0.002520
USER    NEWDPF dihe0	-120.31 -20.53 156.61 3.90 -17.80 179.64 35.67 -179.15 17.95 9.16 -26.25 69.44 -169.07 180.00 -130.16 119.86 172.67 -82.67 52.90 -0.26 -56.51 -18.88 29.39 -143.45 
USER  
USER                              x       y       z    vdW   Elec        q     RMS 
ATOM      1  C   UNL d   1     -10.356  13.393   0.624 -0.07 -0.02    +0.194    12.869
ATOM      2  C   UNL d   1      -9.592  12.227   1.253 -0.11 -0.02    +0.194    12.869
ATOM      3  C   UNL d   1      -8.122  12.216   0.827 -0.16 -0.03    +0.194    12.869
ATOM      4  C   UNL d   1      -7.421  13.554   1.053 -0.21 -0.03    +0.194    12.869
ATOM      5  C   UNL d   1      -8.203  14.758   0.542 -0.12 -0.04    +0.194    12.869
ATOM      6  C   UNL d   1      -9.686  14.737   0.916 -0.07 -0.03    +0.194    12.869
ATOM      7  O   UNL d   1     -11.663  13.434   1.201 -0.05 +0.02    -0.278    12.869
ATOM      8  P   UNL d   1     -12.690  12.266   0.837 +0.00 -0.02    +0.473    12.869
ATOM      9  O   UNL d   1     -13.918  12.707   0.121 -0.00 +0.01    -0.228    12.869
ATOM     10  O   UNL d   1     -11.815  11.228   0.001 -0.01 +0.02    -0.303    12.869
ATOM     11  H   UNL d   1     -11.311  10.658   0.612 +0.04 -0.02    +0.222    12.869
ATOM     12  O   UNL d   1     -12.925  11.483   2.199 -0.02 +0.00    -0.303    12.869
ATOM     13  H   UNL d   1     -12.117  11.025   2.525 +0.04 -0.00    +0.222    12.869
ATOM     14  O   UNL d   1      -9.653  12.344   2.680 -0.66 -0.04    -0.278    12.869
ATOM     15  P   UNL d   1     -10.073  11.028   3.489 -0.17 -0.00    +0.473    12.869
ATOM     16  O   UNL d   1     -11.245  11.151   4.411 -0.15 -0.01    -0.228    12.869
ATOM     17  O   UNL d   1     -10.291   9.929   2.356 +0.04 +0.07    -0.303    12.869
ATOM     18  H   UNL d   1      -9.469   9.777   1.851 -0.25 -0.08    +0.222    12.869
ATOM     19  O   UNL d   1      -8.721  10.528   4.162 -0.33 +0.01    -0.303    12.869
ATOM     20  H   UNL d   1      -8.019  10.388   3.500 +0.15 -0.01    +0.222    12.869
ATOM     21  O   UNL d   1     -10.331  15.712   0.099 -0.04 +0.04    -0.278    12.869
ATOM     22  P   UNL d   1     -11.738  16.315   0.547 -0.02 -0.05    +0.473    12.869
ATOM     23  O   UNL d   1     -12.973  15.769  -0.086 -0.01 +0.02    -0.228    12.869
ATOM     24  O   UNL d   1     -11.672  16.155   2.129 -0.07 +0.05    -0.303    12.869
ATOM     25  H   UNL d   1     -11.955  15.233   2.357 +0.02 -0.03    +0.222    12.869
ATOM     26  O   UNL d   1     -11.490  17.889   0.364 -0.01 +0.03    -0.303    12.869
ATOM     27  H   UNL d   1     -10.612  18.031  -0.044 +0.01 -0.03    +0.222    12.869
ATOM     28  O   UNL d   1      -7.441  11.288   1.662 -0.20 +0.04    -0.278    12.869
ATOM     29  P   UNL d   1      -7.288   9.767   1.215 -0.23 -0.10    +0.473    12.869
ATOM     30  O   UNL d   1      -6.028   9.433   0.502 -0.43 +0.07    -0.228    12.869
ATOM     31  O   UNL d   1      -7.544   9.038   2.617 -0.15 +0.07    -0.303    12.869
ATOM     32  H   UNL d   1      -8.513   8.896   2.724 -0.43 -0.09    +0.222    12.869
ATOM     33  O   UNL d   1      -8.649   9.510   0.431 -0.13 +0.08    -0.303    12.869
ATOM     34  H   UNL d   1      -9.144   8.779   0.877 -0.43 -0.12    +0.222    12.869
ATOM     35  O   UNL d   1      -7.625  15.894   1.182 -0.12 +0.06    -0.278    12.869
ATOM     36  P   UNL d   1      -7.832  17.353   0.571 -0.03 -0.10    +0.473    12.869
ATOM     37  O   UNL d   1      -6.655  18.270   0.678 -0.04 +0.05    -0.228    12.869
ATOM     38  O   UNL d   1      -8.269  17.022  -0.924 -0.01 +0.06    -0.303    12.869
ATOM     39  H   UNL d   1      -7.613  16.410  -1.323 +0.04 -0.06    +0.222    12.869
ATOM     40  O   UNL d   1      -9.180  17.825   1.269 -0.06 +0.05    -0.303    12.869
ATOM     41  H   UNL d   1      -9.788  17.071   1.435 +0.03 -0.04    +0.222    12.869
ATOM     42  O   UNL d   1      -6.193  13.507   0.319 -0.02 +0.08    -0.278    12.869
ATOM     43  P   UNL d   1      -6.074  14.335  -1.039 -0.18 -0.24    +0.473    12.869
ATOM     44  O   UNL d   1      -7.282  14.405  -1.909 -0.07 +0.09    -0.228    12.869
ATOM     45  O   UNL d   1      -5.548  15.751  -0.540 -0.16 +0.15    -0.303    12.869
ATOM     46  H   UNL d   1      -6.277  16.400  -0.470 +0.07 -0.08    +0.222    12.869
ATOM     47  O   UNL d   1      -4.762  13.724  -1.727 -0.41 +0.32    -0.303    12.869
ATOM     48  H   UNL d   1      -4.053  14.401  -1.728 -0.49 -0.48    +0.222    12.869
TER
ENDMDL
MODEL       77
USER    Run = 77
USER    Cluster Rank = 11
USER    Number of conformations in this cluster = 1
USER  
USER    RMSD from reference structure       = 17.436 A
USER  
USER    Estimated Free Energy of Binding    =   +1.14 kcal/mol  [=(1)+(2)+(3)-(4)]
USER    
USER    (1) Final Intermolecular Energy     =   -6.02 kcal/mol
USER        vdW + Hbond + desolv Energy     =   -5.68 kcal/mol
USER        Electrostatic Energy            =   -0.34 kcal/mol
USER    (2) Final Total Internal Energy     =  -12.59 kcal/mol
USER    (3) Torsional Free Energy           =   +7.16 kcal/mol
USER    (4) Unbound System's Energy  [=(2)] =  -12.59 kcal/mol
USER    
USER    
USER  
USER    DPF = D:/Protein_go_brrr/autodock/final/mut_Y35F/IHP/dock.dpf
USER    NEWDPF move	IHP_ideal_opt.pdbqt
USER    NEWDPF about	0.035000 0.082000 -0.065000
USER    NEWDPF tran0	13.277676 16.771113 2.032226
USER    NEWDPF axisangle0	-0.236050 0.298433 -0.924780 129.649520
USER    NEWDPF quaternion0	-0.213628 0.270085 -0.836936 0.425388
USER    NEWDPF dihe0	102.17 37.53 -179.31 37.60 -19.52 -103.03 -122.40 -91.33 69.79 109.76 20.62 -85.70 157.29 -174.42 31.11 -162.40 24.01 -80.75 51.14 11.28 169.72 13.78 29.47 180.00 
USER  
USER                              x       y       z    vdW   Elec        q     RMS 
ATOM      1  C   UNL d   1      13.428  17.454   3.612 -0.01 -0.05    +0.194    17.436
ATOM      2  C   UNL d   1      14.729  17.339   2.814 -0.03 -0.07    +0.194    17.436
ATOM      3  C   UNL d   1      14.834  15.994   2.093 -0.10 -0.10    +0.194    17.436
ATOM      4  C   UNL d   1      13.607  15.668   1.246 -0.18 -0.14    +0.194    17.436
ATOM      5  C   UNL d   1      12.281  15.880   1.966 -0.13 -0.08    +0.194    17.436
ATOM      6  C   UNL d   1      12.200  17.198   2.738 -0.04 -0.06    +0.194    17.436
ATOM      7  O   UNL d   1      13.327  18.791   4.109 -0.00 +0.05    -0.278    17.436
ATOM      8  P   UNL d   1      14.310  19.240   5.285 +0.00 -0.05    +0.473    17.436
ATOM      9  O   UNL d   1      13.773  20.295   6.188 -0.00 +0.02    -0.228    17.436
ATOM     10  O   UNL d   1      14.653  17.879   6.043 -0.00 +0.02    -0.303    17.436
ATOM     11  H   UNL d   1      13.826  17.445   6.325 +0.01 -0.02    +0.222    17.436
ATOM     12  O   UNL d   1      15.686  19.577   4.567 +0.00 +0.04    -0.303    17.436
ATOM     13  H   UNL d   1      15.693  19.334   3.613 +0.01 -0.04    +0.222    17.436
ATOM     14  O   UNL d   1      14.771  18.386   1.837 -0.04 +0.15    -0.278    17.436
ATOM     15  P   UNL d   1      16.203  19.047   1.557 -0.02 -0.22    +0.473    17.436
ATOM     16  O   UNL d   1      16.334  20.511   1.842 -0.00 +0.06    -0.228    17.436
ATOM     17  O   UNL d   1      17.213  18.159   2.412 -0.01 +0.09    -0.303    17.436
ATOM     18  H   UNL d   1      17.490  17.366   1.915 +0.03 -0.08    +0.222    17.436
ATOM     19  O   UNL d   1      16.563  18.602   0.073 -0.06 +0.30    -0.303    17.436
ATOM     20  H   UNL d   1      16.071  17.803  -0.192 -0.53 -0.48    +0.222    17.436
ATOM     21  O   UNL d   1      11.079  17.094   3.613 -0.05 +0.06    -0.278    17.436
ATOM     22  P   UNL d   1      11.114  16.059   4.827 -0.10 -0.08    +0.473    17.436
ATOM     23  O   UNL d   1      12.166  16.233   5.870 -0.05 +0.02    -0.228    17.436
ATOM     24  O   UNL d   1       9.619  16.138   5.366 -0.22 +0.09    -0.303    17.436
ATOM     25  H   UNL d   1       9.561  16.895   6.003 -0.48 -0.12    +0.222    17.436
ATOM     26  O   UNL d   1      11.115  14.654   4.055 -0.11 +0.04    -0.303    17.436
ATOM     27  H   UNL d   1      12.029  14.437   3.782 +0.08 -0.03    +0.222    17.436
ATOM     28  O   UNL d   1      15.915  16.085   1.173 -0.11 +0.25    -0.278    17.436
ATOM     29  P   UNL d   1      17.108  15.031   1.228 -0.14 -0.18    +0.473    17.436
ATOM     30  O   UNL d   1      18.078  15.103   0.105 -0.21 +0.09    -0.228    17.436
ATOM     31  O   UNL d   1      17.673  15.324   2.696 -0.04 +0.04    -0.303    17.436
ATOM     32  H   UNL d   1      18.118  16.203   2.691 +0.03 -0.04    +0.222    17.436
ATOM     33  O   UNL d   1      16.330  13.655   1.419 -0.20 +0.02    -0.303    17.436
ATOM     34  H   UNL d   1      15.510  13.820   1.945 +0.07 -0.03    +0.222    17.436
ATOM     35  O   UNL d   1      11.289  15.930   0.943 -0.19 +0.14    -0.278    17.436
ATOM     36  P   UNL d   1       9.756  15.667   1.296 -0.21 -0.13    +0.473    17.436
ATOM     37  O   UNL d   1       9.097  16.718   2.132 -0.20 +0.06    -0.228    17.436
ATOM     38  O   UNL d   1       9.115  15.484  -0.150 -0.27 +0.08    -0.303    17.436
ATOM     39  H   UNL d   1       9.817  15.586  -0.828 -0.22 -0.15    +0.222    17.436
ATOM     40  O   UNL d   1       9.792  14.191   1.888 -0.31 +0.06    -0.303    17.436
ATOM     41  H   UNL d   1      10.261  14.156   2.751 +0.12 -0.04    +0.222    17.436
ATOM     42  O   UNL d   1      13.689  14.278   0.914 -0.36 +0.12    -0.278    17.436
ATOM     43  P   UNL d   1      13.498  13.197   2.071 -0.26 -0.08    +0.473    17.436
ATOM     44  O   UNL d   1      14.019  13.539   3.424 -0.09 +0.02    -0.228    17.436
ATOM     45  O   UNL d   1      11.932  12.914   2.030 +0.04 +0.10    -0.303    17.436
ATOM     46  H   UNL d   1      11.417  13.744   2.082 +0.09 -0.06    +0.222    17.436
ATOM     47  O   UNL d   1      14.088  11.856   1.421 -1.00 -0.01    -0.303    17.436
ATOM     48  H   UNL d   1      15.032  11.767   1.667 -0.18 +0.06    +0.222    17.436
TER
ENDMDL
MODEL       33
USER    Run = 33
USER    Cluster Rank = 12
USER    Number of conformations in this cluster = 2
USER  
USER    RMSD from reference structure       = 20.697 A
USER  
USER    Estimated Free Energy of Binding    =   +1.17 kcal/mol  [=(1)+(2)+(3)-(4)]
USER    
USER    (1) Final Intermolecular Energy     =   -5.99 kcal/mol
USER        vdW + Hbond + desolv Energy     =   -5.68 kcal/mol
USER        Electrostatic Energy            =   -0.31 kcal/mol
USER    (2) Final Total Internal Energy     =  -11.15 kcal/mol
USER    (3) Torsional Free Energy           =   +7.16 kcal/mol
USER    (4) Unbound System's Energy  [=(2)] =  -11.15 kcal/mol
USER    
USER    
USER  
USER    DPF = D:/Protein_go_brrr/autodock/final/mut_Y35F/IHP/dock.dpf
USER    NEWDPF move	IHP_ideal_opt.pdbqt
USER    NEWDPF about	0.035000 0.082000 -0.065000
USER    NEWDPF tran0	20.353415 12.882838 -6.618491
USER    NEWDPF axisangle0	-0.813822 0.581090 -0.005397 50.846082
USER    NEWDPF quaternion0	-0.349372 0.249461 -0.002317 0.903163
USER    NEWDPF dihe0	107.97 108.11 71.61 106.19 -24.22 -160.81 -169.70 -95.70 60.06 -180.00 -26.34 132.47 -65.46 -84.63 173.02 -157.23 -141.49 -91.64 -154.63 -18.80 -180.00 -30.39 -12.01 172.65 
USER  
USER                              x       y       z    vdW   Elec        q     RMS 
ATOM      1  C   UNL d   1      21.254  11.498  -6.112 -0.14 -0.03    +0.194    20.697
ATOM      2  C   UNL d   1      20.470  11.336  -7.416 -0.17 -0.05    +0.194    20.697
ATOM      3  C   UNL d   1      19.067  11.937  -7.312 -0.16 -0.06    +0.194    20.697
ATOM      4  C   UNL d   1      19.066  13.380  -6.813 -0.06 -0.04    +0.194    20.697
ATOM      5  C   UNL d   1      19.928  13.611  -5.579 -0.06 -0.04    +0.194    20.697
ATOM      6  C   UNL d   1      21.310  12.958  -5.658 -0.06 -0.03    +0.194    20.697
ATOM      7  O   UNL d   1      22.599  11.073  -6.344 -0.09 +0.03    -0.278    20.697
ATOM      8  P   UNL d   1      23.620  12.109  -7.004 +0.00 -0.05    +0.473    20.697
ATOM      9  O   UNL d   1      22.992  13.315  -7.609 -0.01 +0.03    -0.228    20.697
ATOM     10  O   UNL d   1      24.637  12.454  -5.824 -0.00 +0.02    -0.303    20.697
ATOM     11  H   UNL d   1      24.137  12.694  -5.022 +0.01 -0.01    +0.222    20.697
ATOM     12  O   UNL d   1      24.523  11.235  -7.976 -0.01 +0.04    -0.303    20.697
ATOM     13  H   UNL d   1      24.012  10.816  -8.705 +0.03 -0.04    +0.222    20.697
ATOM     14  O   UNL d   1      21.175  12.003  -8.470 -0.05 +0.07    -0.278    20.697
ATOM     15  P   UNL d   1      21.796  11.073  -9.616 -0.08 -0.18    +0.473    20.697
ATOM     16  O   UNL d   1      22.194   9.687  -9.215 -0.19 +0.13    -0.228    20.697
ATOM     17  O   UNL d   1      20.695  11.090 -10.768 -0.12 +0.14    -0.303    20.697
ATOM     18  H   UNL d   1      19.812  11.296 -10.407 +0.06 -0.09    +0.222    20.697
ATOM     19  O   UNL d   1      22.949  11.957 -10.263 -0.01 +0.07    -0.303    20.697
ATOM     20  H   UNL d   1      23.507  12.376  -9.583 +0.02 -0.04    +0.222    20.697
ATOM     21  O   UNL d   1      21.845  12.964  -4.336 -0.04 +0.03    -0.278    20.697
ATOM     22  P   UNL d   1      21.337  11.891  -3.271 -0.11 -0.02    +0.473    20.697
ATOM     23  O   UNL d   1      21.481  12.213  -1.822 -0.12 +0.00    -0.228    20.697
ATOM     24  O   UNL d   1      19.842  11.636  -3.752 -0.21 +0.07    -0.303    20.697
ATOM     25  H   UNL d   1      19.253  12.280  -3.282 -0.44 -0.12    +0.222    20.697
ATOM     26  O   UNL d   1      22.077  10.560  -3.772 -0.05 -0.04    -0.303    20.697
ATOM     27  H   UNL d   1      22.884  10.807  -4.268 +0.05 +0.01    +0.222    20.697
ATOM     28  O   UNL d   1      18.526  11.991  -8.625 -0.11 +0.08    -0.278    20.697
ATOM     29  P   UNL d   1      17.897  10.688  -9.291 -0.18 -0.15    +0.473    20.697
ATOM     30  O   UNL d   1      17.297  10.882 -10.636 -0.23 +0.06    -0.228    20.697
ATOM     31  O   UNL d   1      19.146   9.692  -9.190 -0.64 +0.21    -0.303    20.697
ATOM     32  H   UNL d   1      19.415   9.432 -10.101 -0.43 -0.36    +0.222    20.697
ATOM     33  O   UNL d   1      16.931  10.159  -8.141 -0.56 +0.07    -0.303    20.697
ATOM     34  H   UNL d   1      17.358  10.320  -7.264 -0.18 -0.09    +0.222    20.697
ATOM     35  O   UNL d   1      20.134  15.020  -5.509 -0.01 +0.05    -0.278    20.697
ATOM     36  P   UNL d   1      19.614  15.847  -4.248 -0.02 -0.12    +0.473    20.697
ATOM     37  O   UNL d   1      18.291  16.524  -4.421 -0.08 +0.10    -0.228    20.697
ATOM     38  O   UNL d   1      19.638  14.743  -3.101 -0.09 +0.08    -0.303    20.697
ATOM     39  H   UNL d   1      19.799  13.863  -3.505 +0.04 -0.06    +0.222    20.697
ATOM     40  O   UNL d   1      20.861  16.775  -3.912 -0.00 +0.05    -0.303    20.697
ATOM     41  H   UNL d   1      20.583  17.691  -3.685 +0.01 -0.04    +0.222    20.697
ATOM     42  O   UNL d   1      17.717  13.691  -6.448 -0.06 +0.07    -0.278    20.697
ATOM     43  P   UNL d   1      17.019  12.852  -5.286 -0.14 -0.14    +0.473    20.697
ATOM     44  O   UNL d   1      17.168  11.370  -5.324 -0.35 +0.09    -0.228    20.697
ATOM     45  O   UNL d   1      17.598  13.531  -3.968 -0.12 +0.10    -0.303    20.697
ATOM     46  H   UNL d   1      18.337  13.011  -3.593 -0.40 -0.11    +0.222    20.697
ATOM     47  O   UNL d   1      15.511  13.395  -5.296 -0.21 +0.09    -0.303    20.697
ATOM     48  H   UNL d   1      15.521  14.375  -5.299 +0.08 -0.10    +0.222    20.697
TER
ENDMDL
MODEL       90
USER    Run = 90
USER    Cluster Rank = 13
USER    Number of conformations in this cluster = 1
USER  
USER    RMSD from reference structure       = 17.967 A
USER  
USER    Estimated Free Energy of Binding    =   +1.20 kcal/mol  [=(1)+(2)+(3)-(4)]
USER    
USER    (1) Final Intermolecular Energy     =   -5.96 kcal/mol
USER        vdW + Hbond + desolv Energy     =   -5.35 kcal/mol
USER        Electrostatic Energy            =   -0.60 kcal/mol
USER    (2) Final Total Internal Energy     =  -14.40 kcal/mol
USER    (3) Torsional Free Energy           =   +7.16 kcal/mol
USER    (4) Unbound System's Energy  [=(2)] =  -14.40 kcal/mol
USER    
USER    
USER  
USER    DPF = D:/Protein_go_brrr/autodock/final/mut_Y35F/IHP/dock.dpf
USER    NEWDPF move	IHP_ideal_opt.pdbqt
USER    NEWDPF about	0.035000 0.082000 -0.065000
USER    NEWDPF tran0	-14.216025 5.965064 15.056635
USER    NEWDPF axisangle0	-0.153997 0.939437 -0.306173 135.008831
USER    NEWDPF quaternion0	-0.142280 0.867955 -0.282876 0.382612
USER    NEWDPF dihe0	151.17 80.85 149.66 157.13 -57.90 173.82 -46.15 -162.82 94.99 29.90 120.81 -96.91 129.54 70.93 23.81 119.52 164.90 102.64 52.80 12.65 162.06 -8.65 -21.01 165.05 
USER  
USER                              x       y       z    vdW   Elec        q     RMS 
ATOM      1  C   UNL d   1     -15.102   4.742  15.896 -0.03 +0.04    +0.194    17.967
ATOM      2  C   UNL d   1     -13.682   4.359  15.476 -0.06 +0.05    +0.194    17.967
ATOM      3  C   UNL d   1     -13.367   4.824  14.053 -0.13 +0.11    +0.194    17.967
ATOM      4  C   UNL d   1     -13.655   6.306  13.827 -0.11 +0.16    +0.194    17.967
ATOM      5  C   UNL d   1     -15.018   6.758  14.336 -0.04 +0.10    +0.194    17.967
ATOM      6  C   UNL d   1     -15.359   6.241  15.735 -0.01 +0.05    +0.194    17.967
ATOM      7  O   UNL d   1     -15.256   4.430  17.283 -0.01 -0.03    -0.278    17.967
ATOM      8  P   UNL d   1     -15.300   2.892  17.714 -0.01 +0.03    +0.473    17.967
ATOM      9  O   UNL d   1     -15.491   2.651  19.170 -0.01 -0.01    -0.228    17.967
ATOM     10  O   UNL d   1     -16.465   2.273  16.817 -0.03 -0.02    -0.303    17.967
ATOM     11  H   UNL d   1     -16.915   2.986  16.327 +0.02 +0.02    +0.222    17.967
ATOM     12  O   UNL d   1     -14.002   2.244  17.067 -0.04 -0.02    -0.303    17.967
ATOM     13  H   UNL d   1     -13.230   2.854  17.060 +0.05 +0.02    +0.222    17.967
ATOM     14  O   UNL d   1     -12.747   4.972  16.374 -0.04 -0.06    -0.278    17.967
ATOM     15  P   UNL d   1     -11.436   4.125  16.730 -0.03 +0.03    +0.473    17.967
ATOM     16  O   UNL d   1     -10.119   4.802  16.511 -0.21 -0.01    -0.228    17.967
ATOM     17  O   UNL d   1     -11.659   3.683  18.244 -0.07 -0.01    -0.303    17.967
ATOM     18  H   UNL d   1     -12.515   3.227  18.355 +0.04 +0.01    +0.222    17.967
ATOM     19  O   UNL d   1     -11.634   2.746  15.962 -0.11 -0.00    -0.303    17.967
ATOM     20  H   UNL d   1     -11.161   2.736  15.110 -0.28 +0.01    +0.222    17.967
ATOM     21  O   UNL d   1     -16.757   6.448  15.922 -0.00 -0.05    -0.278    17.967
ATOM     22  P   UNL d   1     -17.799   5.756  14.932 +0.00 +0.09    +0.473    17.967
ATOM     23  O   UNL d   1     -17.715   4.279  14.740 -0.04 -0.04    -0.228    17.967
ATOM     24  O   UNL d   1     -19.189   6.277  15.506 -0.00 -0.03    -0.303    17.967
ATOM     25  H   UNL d   1     -19.751   5.488  15.716 +0.00 +0.02    +0.222    17.967
ATOM     26  O   UNL d   1     -17.633   6.647  13.609 -0.00 -0.09    -0.303    17.967
ATOM     27  H   UNL d   1     -16.966   7.344  13.773 +0.01 +0.08    +0.222    17.967
ATOM     28  O   UNL d   1     -11.966   4.678  13.854 -0.19 -0.18    -0.278    17.967
ATOM     29  P   UNL d   1     -11.396   3.444  13.024 -0.35 +0.36    +0.473    17.967
ATOM     30  O   UNL d   1     -11.174   3.694  11.577 -0.78 -0.32    -0.228    17.967
ATOM     31  O   UNL d   1     -10.109   3.086  13.905 -0.49 -0.14    -0.303    17.967
ATOM     32  H   UNL d   1     -10.112   3.654  14.710 -0.45 +0.03    +0.222    17.967
ATOM     33  O   UNL d   1     -12.418   2.284  13.406 -0.25 -0.12    -0.303    17.967
ATOM     34  H   UNL d   1     -11.987   1.678  14.057 -0.44 -0.00    +0.222    17.967
ATOM     35  O   UNL d   1     -14.949   8.180  14.419 -0.04 -0.16    -0.278    17.967
ATOM     36  P   UNL d   1     -15.771   9.087  13.396 -0.02 +0.29    +0.473    17.967
ATOM     37  O   UNL d   1     -15.169  10.421  13.089 -0.04 -0.15    -0.228    17.967
ATOM     38  O   UNL d   1     -15.901   8.121  12.136 -0.08 -0.26    -0.303    17.967
ATOM     39  H   UNL d   1     -15.833   7.189  12.437 +0.03 +0.17    +0.222    17.967
ATOM     40  O   UNL d   1     -17.228   9.082  14.034 +0.00 -0.08    -0.303    17.967
ATOM     41  H   UNL d   1     -17.312   8.409  14.745 +0.01 +0.05    +0.222    17.967
ATOM     42  O   UNL d   1     -13.643   6.520  12.411 -0.30 -0.45    -0.278    17.967
ATOM     43  P   UNL d   1     -14.577   5.617  11.487 -0.12 +0.61    +0.473    17.967
ATOM     44  O   UNL d   1     -15.116   6.235  10.243 -0.11 -0.29    -0.228    17.967
ATOM     45  O   UNL d   1     -13.679   4.327  11.237 -0.64 -0.66    -0.303    17.967
ATOM     46  H   UNL d   1     -13.295   3.991  12.071 +0.09 +0.32    +0.222    17.967
ATOM     47  O   UNL d   1     -15.675   5.056  12.512 -0.07 -0.21    -0.303    17.967
ATOM     48  H   UNL d   1     -16.371   5.733  12.641 +0.04 +0.12    +0.222    17.967
TER
ENDMDL
MODEL       69
USER    Run = 69
USER    Cluster Rank = 14
USER    Number of conformations in this cluster = 1
USER  
USER    RMSD from reference structure       = 15.428 A
USER  
USER    Estimated Free Energy of Binding    =   +1.41 kcal/mol  [=(1)+(2)+(3)-(4)]
USER    
USER    (1) Final Intermolecular Energy     =   -5.75 kcal/mol
USER        vdW + Hbond + desolv Energy     =   -5.12 kcal/mol
USER        Electrostatic Energy            =   -0.63 kcal/mol
USER    (2) Final Total Internal Energy     =  -11.38 kcal/mol
USER    (3) Torsional Free Energy           =   +7.16 kcal/mol
USER    (4) Unbound System's Energy  [=(2)] =  -11.38 kcal/mol
USER    
USER    
USER  
USER    DPF = D:/Protein_go_brrr/autodock/final/mut_Y35F/IHP/dock.dpf
USER    NEWDPF move	IHP_ideal_opt.pdbqt
USER    NEWDPF about	0.035000 0.082000 -0.065000
USER    NEWDPF tran0	6.408889 -16.678821 -6.316269
USER    NEWDPF axisangle0	-0.304796 -0.590109 -0.747577 -165.265498
USER    NEWDPF quaternion0	-0.302280 -0.585237 -0.741405 -0.128229
USER    NEWDPF dihe0	57.48 88.79 44.85 71.53 -26.37 180.00 -4.72 -72.88 -67.89 122.93 73.16 -46.22 -94.23 164.35 175.45 -38.56 6.63 105.02 -135.90 -6.90 -175.69 136.62 143.33 151.08 
USER  
USER                              x       y       z    vdW   Elec        q     RMS 
ATOM      1  C   UNL d   1       5.179 -15.475  -6.164 -0.20 -0.07    +0.194    15.428
ATOM      2  C   UNL d   1       5.610 -15.802  -7.595 -0.14 -0.07    +0.194    15.428
ATOM      3  C   UNL d   1       7.131 -15.930  -7.713 -0.05 -0.08    +0.194    15.428
ATOM      4  C   UNL d   1       7.733 -16.895  -6.694 -0.01 -0.07    +0.194    15.428
ATOM      5  C   UNL d   1       7.241 -16.679  -5.268 -0.03 -0.08    +0.194    15.428
ATOM      6  C   UNL d   1       5.727 -16.488  -5.158 -0.08 -0.06    +0.194    15.428
ATOM      7  O   UNL d   1       3.752 -15.543  -6.102 -0.22 +0.12    -0.278    15.428
ATOM      8  P   UNL d   1       3.081 -16.847  -5.468 -0.14 -0.17    +0.473    15.428
ATOM      9  O   UNL d   1       3.699 -18.137  -5.877 -0.07 +0.07    -0.228    15.428
ATOM     10  O   UNL d   1       3.147 -16.590  -3.895 -0.18 +0.09    -0.303    15.428
ATOM     11  H   UNL d   1       3.897 -17.085  -3.514 +0.09 -0.06    +0.222    15.428
ATOM     12  O   UNL d   1       1.527 -16.696  -5.764 -0.26 +0.16    -0.303    15.428
ATOM     13  H   UNL d   1       1.337 -16.391  -6.679 -0.39 -0.17    +0.222    15.428
ATOM     14  O   UNL d   1       5.015 -17.044  -7.990 -0.05 +0.08    -0.278    15.428
ATOM     15  P   UNL d   1       4.141 -17.023  -9.332 -0.04 -0.14    +0.473    15.428
ATOM     16  O   UNL d   1       2.879 -17.827  -9.323 -0.08 +0.07    -0.228    15.428
ATOM     17  O   UNL d   1       3.885 -15.475  -9.604 -0.16 +0.13    -0.303    15.428
ATOM     18  H   UNL d   1       3.536 -15.031  -8.807 -0.42 -0.15    +0.222    15.428
ATOM     19  O   UNL d   1       5.176 -17.384 -10.485 -0.01 +0.06    -0.303    15.428
ATOM     20  H   UNL d   1       6.020 -17.709 -10.123 +0.02 -0.04    +0.222    15.428
ATOM     21  O   UNL d   1       5.471 -15.966  -3.856 -0.10 +0.09    -0.278    15.428
ATOM     22  P   UNL d   1       5.644 -14.404  -3.582 -0.22 -0.19    +0.473    15.428
ATOM     23  O   UNL d   1       5.946 -13.961  -2.190 -0.66 +0.06    -0.228    15.428
ATOM     24  O   UNL d   1       6.742 -14.003  -4.663 -0.60 +0.26    -0.303    15.428
ATOM     25  H   UNL d   1       7.633 -14.071  -4.236 -0.22 -0.36    +0.222    15.428
ATOM     26  O   UNL d   1       4.305 -13.809  -4.234 -0.51 +0.06    -0.303    15.428
ATOM     27  H   UNL d   1       3.731 -14.548  -4.520 +0.13 -0.06    +0.222    15.428
ATOM     28  O   UNL d   1       7.415 -16.499  -8.984 -0.01 +0.08    -0.278    15.428
ATOM     29  P   UNL d   1       8.037 -17.961  -9.091 +0.01 -0.09    +0.473    15.428
ATOM     30  O   UNL d   1       9.399 -18.121  -8.520 +0.00 +0.04    -0.228    15.428
ATOM     31  O   UNL d   1       6.862 -18.814  -8.416 +0.00 +0.05    -0.303    15.428
ATOM     32  H   UNL d   1       6.004 -18.527  -8.804 +0.01 -0.04    +0.222    15.428
ATOM     33  O   UNL d   1       7.863 -18.287 -10.640 +0.00 +0.04    -0.303    15.428
ATOM     34  H   UNL d   1       7.243 -17.627 -11.039 +0.01 -0.03    +0.222    15.428
ATOM     35  O   UNL d   1       7.567 -17.874  -4.561 -0.00 +0.08    -0.278    15.428
ATOM     36  P   UNL d   1       6.569 -19.117  -4.581 +0.01 -0.09    +0.473    15.428
ATOM     37  O   UNL d   1       6.112 -19.557  -5.936 -0.00 +0.04    -0.228    15.428
ATOM     38  O   UNL d   1       7.401 -20.216  -3.783 +0.00 +0.04    -0.303    15.428
ATOM     39  H   UNL d   1       7.306 -21.082  -4.235 +0.00 -0.02    +0.222    15.428
ATOM     40  O   UNL d   1       5.444 -18.666  -3.551 -0.01 +0.06    -0.303    15.428
ATOM     41  H   UNL d   1       4.790 -18.062  -3.967 +0.06 -0.05    +0.222    15.428
ATOM     42  O   UNL d   1       9.146 -16.665  -6.691 -0.01 +0.12    -0.278    15.428
ATOM     43  P   UNL d   1       9.684 -15.166  -6.791 -0.03 -0.42    +0.473    15.428
ATOM     44  O   UNL d   1      10.993 -14.862  -6.148 -0.09 +0.23    -0.228    15.428
ATOM     45  O   UNL d   1       9.648 -14.887  -8.357 -0.03 +0.18    -0.303    15.428
ATOM     46  H   UNL d   1       9.320 -15.664  -8.852 +0.02 -0.09    +0.222    15.428
ATOM     47  O   UNL d   1       8.441 -14.296  -6.276 -0.09 +0.43    -0.303    15.428
ATOM     48  H   UNL d   1       8.756 -13.636  -5.625 -0.35 -0.65    +0.222    15.428
TER
ENDMDL
MODEL       15
USER    Run = 15
USER    Cluster Rank = 15
USER    Number of conformations in this cluster = 1
USER  
USER    RMSD from reference structure       = 16.086 A
USER  
USER    Estimated Free Energy of Binding    =   +1.47 kcal/mol  [=(1)+(2)+(3)-(4)]
USER    
USER    (1) Final Intermolecular Energy     =   -5.69 kcal/mol
USER        vdW + Hbond + desolv Energy     =   -5.40 kcal/mol
USER        Electrostatic Energy            =   -0.29 kcal/mol
USER    (2) Final Total Internal Energy     =  -12.40 kcal/mol
USER    (3) Torsional Free Energy           =   +7.16 kcal/mol
USER    (4) Unbound System's Energy  [=(2)] =  -12.40 kcal/mol
USER    
USER    
USER  
USER    DPF = D:/Protein_go_brrr/autodock/final/mut_Y35F/IHP/dock.dpf
USER    NEWDPF move	IHP_ideal_opt.pdbqt
USER    NEWDPF about	0.035000 0.082000 -0.065000
USER    NEWDPF tran0	12.081481 14.304223 5.036726
USER    NEWDPF axisangle0	0.526057 0.502870 0.685847 -179.668533
USER    NEWDPF quaternion0	0.526054 0.502867 0.685845 -0.002893
USER    NEWDPF dihe0	107.94 117.70 97.23 122.21 130.65 -106.42 129.31 -110.15 -11.25 152.55 128.74 141.95 104.85 114.02 115.78 -136.00 -62.37 26.41 43.14 -2.22 -38.73 14.55 27.70 -180.00 
USER  
USER                              x       y       z    vdW   Elec        q     RMS 
ATOM      1  C   UNL d   1      11.629  15.954   5.275 -0.10 -0.03    +0.194    16.086
ATOM      2  C   UNL d   1      11.497  15.433   3.843 -0.11 -0.03    +0.194    16.086
ATOM      3  C   UNL d   1      12.703  14.585   3.435 -0.08 -0.03    +0.194    16.086
ATOM      4  C   UNL d   1      13.018  13.469   4.429 -0.08 -0.01    +0.194    16.086
ATOM      5  C   UNL d   1      13.046  13.923   5.883 -0.05 -0.00    +0.194    16.086
ATOM      6  C   UNL d   1      11.871  14.822   6.274 -0.11 -0.01    +0.194    16.086
ATOM      7  O   UNL d   1      10.397  16.584   5.636 -0.17 +0.07    -0.278    16.086
ATOM      8  P   UNL d   1      10.121  18.068   5.112 -0.11 -0.11    +0.473    16.086
ATOM      9  O   UNL d   1       8.686  18.454   5.036 -0.27 +0.07    -0.228    16.086
ATOM     10  O   UNL d   1      10.968  18.991   6.100 -0.05 +0.05    -0.303    16.086
ATOM     11  H   UNL d   1      10.771  18.747   7.024 +0.04 -0.04    +0.222    16.086
ATOM     12  O   UNL d   1      10.945  18.187   3.758 -0.03 +0.06    -0.303    16.086
ATOM     13  H   UNL d   1      10.546  17.677   3.018 +0.07 -0.05    +0.222    16.086
ATOM     14  O   UNL d   1      10.317  14.624   3.747 -0.19 +0.04    -0.278    16.086
ATOM     15  P   UNL d   1       9.311  14.966   2.550 -0.25 -0.11    +0.473    16.086
ATOM     16  O   UNL d   1       8.210  13.984   2.296 -0.34 +0.05    -0.228    16.086
ATOM     17  O   UNL d   1       8.769  16.422   2.901 -0.21 +0.10    -0.303    16.086
ATOM     18  H   UNL d   1       9.180  16.762   3.719 +0.08 -0.06    +0.222    16.086
ATOM     19  O   UNL d   1      10.259  15.268   1.309 -0.25 +0.09    -0.303    16.086
ATOM     20  H   UNL d   1      10.790  14.489   1.062 +0.07 -0.07    +0.222    16.086
ATOM     21  O   UNL d   1      12.213  15.428   7.519 -0.06 +0.00    -0.278    16.086
ATOM     22  P   UNL d   1      11.093  15.623   8.638 -0.15 +0.01    +0.473    16.086
ATOM     23  O   UNL d   1      11.498  15.504  10.069 -0.13 -0.05    -0.228    16.086
ATOM     24  O   UNL d   1      10.472  17.032   8.235 -0.15 +0.05    -0.303    16.086
ATOM     25  H   UNL d   1      10.042  16.937   7.347 -0.36 -0.10    +0.222    16.086
ATOM     26  O   UNL d   1       9.957  14.606   8.143 -0.12 -0.01    -0.303    16.086
ATOM     27  H   UNL d   1      10.203  13.696   8.405 +0.09 +0.03    +0.222    16.086
ATOM     28  O   UNL d   1      12.372  13.925   2.220 -0.18 +0.07    -0.278    16.086
ATOM     29  P   UNL d   1      13.310  14.075   0.941 -0.30 -0.17    +0.473    16.086
ATOM     30  O   UNL d   1      12.686  13.713  -0.357 -0.95 +0.07    -0.228    16.086
ATOM     31  O   UNL d   1      13.785  15.593   1.120 -0.17 +0.23    -0.303    16.086
ATOM     32  H   UNL d   1      14.375  15.828   0.368 -0.17 -0.36    +0.222    16.086
ATOM     33  O   UNL d   1      14.600  13.250   1.376 -0.55 +0.02    -0.303    16.086
ATOM     34  H   UNL d   1      14.899  13.564   2.264 +0.08 -0.02    +0.222    16.086
ATOM     35  O   UNL d   1      12.942  12.733   6.662 -0.05 -0.01    -0.278    16.086
ATOM     36  P   UNL d   1      13.442  12.716   8.176 -0.02 +0.05    +0.473    16.086
ATOM     37  O   UNL d   1      14.368  13.826   8.562 -0.01 -0.02    -0.228    16.086
ATOM     38  O   UNL d   1      12.064  12.706   8.974 -0.07 -0.05    -0.303    16.086
ATOM     39  H   UNL d   1      11.715  13.622   9.025 +0.06 +0.03    +0.222    16.086
ATOM     40  O   UNL d   1      13.988  11.231   8.337 -0.01 -0.04    -0.303    16.086
ATOM     41  H   UNL d   1      14.967  11.211   8.431 +0.01 +0.03    +0.222    16.086
ATOM     42  O   UNL d   1      14.329  12.989   4.112 -0.07 +0.00    -0.278    16.086
ATOM     43  P   UNL d   1      15.583  13.937   4.382 -0.02 -0.00    +0.473    16.086
ATOM     44  O   UNL d   1      15.983  14.160   5.800 -0.01 -0.00    -0.228    16.086
ATOM     45  O   UNL d   1      16.718  13.279   3.482 -0.08 -0.03    -0.303    16.086
ATOM     46  H   UNL d   1      16.437  13.206   2.548 +0.07 +0.02    +0.222    16.086
ATOM     47  O   UNL d   1      15.231  15.259   3.547 -0.02 +0.05    -0.303    16.086
ATOM     48  H   UNL d   1      14.812  15.003   2.699 +0.06 -0.06    +0.222    16.086
TER
ENDMDL
MODEL       52
USER    Run = 52
USER    Cluster Rank = 16
USER    Number of conformations in this cluster = 2
USER  
USER    RMSD from reference structure       = 18.696 A
USER  
USER    Estimated Free Energy of Binding    =   +1.48 kcal/mol  [=(1)+(2)+(3)-(4)]
USER    
USER    (1) Final Intermolecular Energy     =   -5.68 kcal/mol
USER        vdW + Hbond + desolv Energy     =   -5.06 kcal/mol
USER        Electrostatic Energy            =   -0.62 kcal/mol
USER    (2) Final Total Internal Energy     =  -12.14 kcal/mol
USER    (3) Torsional Free Energy           =   +7.16 kcal/mol
USER    (4) Unbound System's Energy  [=(2)] =  -12.14 kcal/mol
USER    
USER    
USER  
USER    DPF = D:/Protein_go_brrr/autodock/final/mut_Y35F/IHP/dock.dpf
USER    NEWDPF move	IHP_ideal_opt.pdbqt
USER    NEWDPF about	0.035000 0.082000 -0.065000
USER    NEWDPF tran0	-16.483348 -9.570049 12.367741
USER    NEWDPF axisangle0	-0.593150 0.576363 0.562120 105.275989
USER    NEWDPF quaternion0	-0.471446 0.458104 0.446782 0.606849
USER    NEWDPF dihe0	-108.97 166.83 120.64 137.24 -81.65 -172.78 -123.62 80.47 18.59 -53.76 166.15 142.92 30.49 82.35 -178.96 60.34 -131.09 100.69 -131.24 -10.37 -178.34 162.93 146.69 -42.52 
USER  
USER                              x       y       z    vdW   Elec        q     RMS 
ATOM      1  C   UNL d   1     -17.127 -11.058  11.772 -0.07 +0.01    +0.194    18.696
ATOM      2  C   UNL d   1     -17.082  -9.908  10.765 -0.12 +0.01    +0.194    18.696
ATOM      3  C   UNL d   1     -17.538  -8.588  11.391 -0.04 -0.01    +0.194    18.696
ATOM      4  C   UNL d   1     -16.803  -8.251  12.686 -0.03 -0.02    +0.194    18.696
ATOM      5  C   UNL d   1     -16.725  -9.408  13.674 -0.01 -0.00    +0.194    18.696
ATOM      6  C   UNL d   1     -16.328 -10.741  13.037 -0.03 +0.03    +0.194    18.696
ATOM      7  O   UNL d   1     -16.528 -12.206  11.166 -0.10 -0.03    -0.278    18.696
ATOM      8  P   UNL d   1     -15.073 -12.649  11.653 -0.07 +0.12    +0.473    18.696
ATOM      9  O   UNL d   1     -15.044 -13.463  12.899 -0.02 -0.03    -0.228    18.696
ATOM     10  O   UNL d   1     -14.457 -13.408  10.393 -0.14 -0.07    -0.303    18.696
ATOM     11  H   UNL d   1     -13.944 -12.780   9.851 +0.08 +0.07    +0.222    18.696
ATOM     12  O   UNL d   1     -14.221 -11.308  11.682 -0.50 -0.26    -0.303    18.696
ATOM     13  H   UNL d   1     -13.844 -11.109  12.568 +0.03 +0.25    +0.222    18.696
ATOM     14  O   UNL d   1     -15.736  -9.750  10.297 -0.16 -0.06    -0.278    18.696
ATOM     15  P   UNL d   1     -15.505  -9.898   8.720 -0.26 +0.03    +0.473    18.696
ATOM     16  O   UNL d   1     -14.578  -8.912   8.081 -0.44 -0.02    -0.228    18.696
ATOM     17  O   UNL d   1     -15.023 -11.405   8.538 -0.26 -0.06    -0.303    18.696
ATOM     18  H   UNL d   1     -15.341 -11.967   9.271 +0.09 +0.05    +0.222    18.696
ATOM     19  O   UNL d   1     -16.972  -9.956   8.107 -0.12 +0.07    -0.303    18.696
ATOM     20  H   UNL d   1     -17.380  -9.071   8.066 -0.45 -0.10    +0.222    18.696
ATOM     21  O   UNL d   1     -16.630 -11.759  13.989 -0.00 -0.02    -0.278    18.696
ATOM     22  P   UNL d   1     -18.133 -12.266  14.156 +0.00 +0.00    +0.473    18.696
ATOM     23  O   UNL d   1     -18.574 -12.734  15.502 -0.00 +0.00    -0.228    18.696
ATOM     24  O   UNL d   1     -18.959 -11.036  13.574 -0.00 +0.00    -0.303    18.696
ATOM     25  H   UNL d   1     -19.817 -10.980  14.066 +0.01 -0.00    +0.222    18.696
ATOM     26  O   UNL d   1     -18.250 -13.335  12.967 -0.01 -0.00    -0.303    18.696
ATOM     27  H   UNL d   1     -17.355 -13.533  12.623 +0.02 +0.01    +0.222    18.696
ATOM     28  O   UNL d   1     -17.202  -7.546  10.484 -0.07 +0.04    -0.278    18.696
ATOM     29  P   UNL d   1     -15.756  -6.879  10.525 -0.10 -0.16    +0.473    18.696
ATOM     30  O   UNL d   1     -14.639  -7.792  10.878 -0.33 -0.04    -0.228    18.696
ATOM     31  O   UNL d   1     -15.716  -6.210   9.071 -0.38 +0.08    -0.303    18.696
ATOM     32  H   UNL d   1     -15.620  -6.925   8.400 -0.24 -0.06    +0.222    18.696
ATOM     33  O   UNL d   1     -15.993  -5.627  11.481 -0.07 +0.27    -0.303    18.696
ATOM     34  H   UNL d   1     -15.214  -5.530  12.081 -0.33 -0.50    +0.222    18.696
ATOM     35  O   UNL d   1     -15.694  -9.060  14.596 -0.02 +0.01    -0.278    18.696
ATOM     36  P   UNL d   1     -14.165  -9.333  14.234 -0.06 +0.12    +0.473    18.696
ATOM     37  O   UNL d   1     -13.654 -10.696  14.577 -0.08 -0.09    -0.228    18.696
ATOM     38  O   UNL d   1     -14.133  -8.994  12.678 -0.23 -0.28    -0.303    18.696
ATOM     39  H   UNL d   1     -14.850  -9.490  12.227 +0.04 +0.14    +0.222    18.696
ATOM     40  O   UNL d   1     -13.429  -8.095  14.910 -0.03 +0.15    -0.303    18.696
ATOM     41  H   UNL d   1     -13.282  -7.364  14.269 -0.43 -0.41    +0.222    18.696
ATOM     42  O   UNL d   1     -17.543  -7.203  13.322 -0.01 +0.06    -0.278    18.696
ATOM     43  P   UNL d   1     -16.779  -6.205  14.303 -0.04 -0.18    +0.473    18.696
ATOM     44  O   UNL d   1     -17.248  -4.792  14.346 -0.06 +0.07    -0.228    18.696
ATOM     45  O   UNL d   1     -16.858  -6.960  15.701 -0.01 +0.06    -0.303    18.696
ATOM     46  H   UNL d   1     -16.066  -7.514  15.854 +0.02 -0.05    +0.222    18.696
ATOM     47  O   UNL d   1     -15.239  -6.410  13.908 +0.01 +0.33    -0.303    18.696
ATOM     48  H   UNL d   1     -15.079  -7.357  13.715 -0.01 -0.15    +0.222    18.696
TER
ENDMDL
MODEL       84
USER    Run = 84
USER    Cluster Rank = 17
USER    Number of conformations in this cluster = 1
USER  
USER    RMSD from reference structure       = 15.216 A
USER  
USER    Estimated Free Energy of Binding    =   +1.57 kcal/mol  [=(1)+(2)+(3)-(4)]
USER    
USER    (1) Final Intermolecular Energy     =   -5.59 kcal/mol
USER        vdW + Hbond + desolv Energy     =   -5.22 kcal/mol
USER        Electrostatic Energy            =   -0.37 kcal/mol
USER    (2) Final Total Internal Energy     =  -12.77 kcal/mol
USER    (3) Torsional Free Energy           =   +7.16 kcal/mol
USER    (4) Unbound System's Energy  [=(2)] =  -12.77 kcal/mol
USER    
USER    
USER  
USER    DPF = D:/Protein_go_brrr/autodock/final/mut_Y35F/IHP/dock.dpf
USER    NEWDPF move	IHP_ideal_opt.pdbqt
USER    NEWDPF about	0.035000 0.082000 -0.065000
USER    NEWDPF tran0	4.605189 -16.502736 -6.949803
USER    NEWDPF axisangle0	0.731573 0.681547 0.017183 -82.722205
USER    NEWDPF quaternion0	0.483425 0.450368 0.011354 -0.750560
USER    NEWDPF dihe0	-160.02 -7.44 65.18 104.34 148.40 -95.49 -131.09 -172.58 3.02 -88.26 -159.17 141.02 19.19 108.59 -20.82 101.61 -175.44 58.07 -137.97 -12.63 148.77 -11.57 -24.07 -17.09 
USER  
USER                              x       y       z    vdW   Elec        q     RMS 
ATOM      1  C   UNL d   1       5.521 -16.974  -8.336 -0.05 -0.05    +0.194    15.216
ATOM      2  C   UNL d   1       4.190 -17.703  -8.145 -0.07 -0.06    +0.194    15.216
ATOM      3  C   UNL d   1       3.967 -18.100  -6.684 -0.07 -0.06    +0.194    15.216
ATOM      4  C   UNL d   1       4.132 -16.935  -5.712 -0.14 -0.06    +0.194    15.216
ATOM      5  C   UNL d   1       5.392 -16.109  -5.941 -0.14 -0.07    +0.194    15.216
ATOM      6  C   UNL d   1       5.648 -15.765  -7.409 -0.15 -0.07    +0.194    15.216
ATOM      7  O   UNL d   1       5.575 -16.489  -9.680 -0.03 +0.07    -0.278    15.216
ATOM      8  P   UNL d   1       5.222 -14.954  -9.947 -0.12 -0.16    +0.473    15.216
ATOM      9  O   UNL d   1       6.235 -13.979  -9.459 -0.16 +0.10    -0.228    15.216
ATOM     10  O   UNL d   1       4.987 -14.880 -11.524 -0.08 +0.08    -0.303    15.216
ATOM     11  H   UNL d   1       4.471 -15.656 -11.814 +0.05 -0.05    +0.222    15.216
ATOM     12  O   UNL d   1       3.748 -14.765  -9.383 -0.11 +0.16    -0.303    15.216
ATOM     13  H   UNL d   1       3.111 -15.423  -9.742 -0.14 -0.12    +0.222    15.216
ATOM     14  O   UNL d   1       3.122 -16.839  -8.551 +0.06 +0.14    -0.278    15.216
ATOM     15  P   UNL d   1       2.207 -17.352  -9.762 -0.08 -0.15    +0.473    15.216
ATOM     16  O   UNL d   1       0.895 -16.658  -9.953 -0.30 +0.08    -0.228    15.216
ATOM     17  O   UNL d   1       3.155 -17.241 -11.037 -0.04 +0.06    -0.303    15.216
ATOM     18  H   UNL d   1       3.796 -16.511 -10.938 +0.06 -0.05    +0.222    15.216
ATOM     19  O   UNL d   1       2.127 -18.927  -9.558 -0.03 +0.06    -0.303    15.216
ATOM     20  H   UNL d   1       1.962 -19.163  -8.627 +0.05 -0.06    +0.222    15.216
ATOM     21  O   UNL d   1       6.996 -15.310  -7.497 -0.07 +0.14    -0.278    15.216
ATOM     22  P   UNL d   1       8.157 -16.131  -6.773 -0.02 -0.24    +0.473    15.216
ATOM     23  O   UNL d   1       7.824 -17.468  -6.202 -0.01 +0.07    -0.228    15.216
ATOM     24  O   UNL d   1       9.291 -16.145  -7.890 -0.01 +0.13    -0.303    15.216
ATOM     25  H   UNL d   1       9.783 -15.287  -7.841 +0.02 -0.13    +0.222    15.216
ATOM     26  O   UNL d   1       8.726 -15.046  -5.738 -0.11 +0.34    -0.303    15.216
ATOM     27  H   UNL d   1       8.242 -15.124  -4.891 -0.00 -0.25    +0.222    15.216
ATOM     28  O   UNL d   1       2.611 -18.511  -6.554 -0.08 +0.10    -0.278    15.216
ATOM     29  P   UNL d   1       2.235 -20.058  -6.562 -0.01 -0.15    +0.473    15.216
ATOM     30  O   UNL d   1       2.540 -20.798  -5.311 -0.03 +0.06    -0.228    15.216
ATOM     31  O   UNL d   1       0.698 -19.969  -6.997 -0.08 +0.20    -0.303    15.216
ATOM     32  H   UNL d   1       0.162 -19.727  -6.207 -0.45 -0.30    +0.222    15.216
ATOM     33  O   UNL d   1       2.948 -20.568  -7.892 -0.00 +0.06    -0.303    15.216
ATOM     34  H   UNL d   1       2.256 -20.841  -8.543 +0.02 -0.04    +0.222    15.216
ATOM     35  O   UNL d   1       5.179 -14.879  -5.252 -0.73 +0.08    -0.278    15.216
ATOM     36  P   UNL d   1       5.949 -14.577  -3.888 -0.16 -0.22    +0.473    15.216
ATOM     37  O   UNL d   1       5.095 -14.093  -2.759 -0.61 +0.06    -0.228    15.216
ATOM     38  O   UNL d   1       6.675 -15.967  -3.609 -0.07 +0.13    -0.303    15.216
ATOM     39  H   UNL d   1       5.998 -16.649  -3.413 +0.08 -0.07    +0.222    15.216
ATOM     40  O   UNL d   1       7.125 -13.619  -4.366 -0.30 +0.41    -0.303    15.216
ATOM     41  H   UNL d   1       7.999 -13.921  -4.033 -0.31 -0.53    +0.222    15.216
ATOM     42  O   UNL d   1       4.231 -17.500  -4.400 -0.06 +0.07    -0.278    15.216
ATOM     43  P   UNL d   1       3.274 -16.949  -3.249 -0.12 -0.13    +0.473    15.216
ATOM     44  O   UNL d   1       2.110 -17.794  -2.861 -0.26 +0.05    -0.228    15.216
ATOM     45  O   UNL d   1       4.291 -16.657  -2.060 -0.15 +0.11    -0.303    15.216
ATOM     46  H   UNL d   1       4.189 -15.746  -1.718 -0.40 -0.13    +0.222    15.216
ATOM     47  O   UNL d   1       2.918 -15.467  -3.745 +0.03 +0.09    -0.303    15.216
ATOM     48  H   UNL d   1       3.719 -15.055  -4.130 +0.13 -0.06    +0.222    15.216
TER
ENDMDL
MODEL       76
USER    Run = 76
USER    Cluster Rank = 18
USER    Number of conformations in this cluster = 1
USER  
USER    RMSD from reference structure       = 18.192 A
USER  
USER    Estimated Free Energy of Binding    =   +1.67 kcal/mol  [=(1)+(2)+(3)-(4)]
USER    
USER    (1) Final Intermolecular Energy     =   -5.49 kcal/mol
USER        vdW + Hbond + desolv Energy     =   -5.50 kcal/mol
USER        Electrostatic Energy            =   +0.01 kcal/mol
USER    (2) Final Total Internal Energy     =  -15.13 kcal/mol
USER    (3) Torsional Free Energy           =   +7.16 kcal/mol
USER    (4) Unbound System's Energy  [=(2)] =  -15.13 kcal/mol
USER    
USER    
USER  
USER    DPF = D:/Protein_go_brrr/autodock/final/mut_Y35F/IHP/dock.dpf
USER    NEWDPF move	IHP_ideal_opt.pdbqt
USER    NEWDPF about	0.035000 0.082000 -0.065000
USER    NEWDPF tran0	14.949616 13.383932 -9.995455
USER    NEWDPF axisangle0	-0.094684 -0.908034 0.408056 -68.776427
USER    NEWDPF quaternion0	-0.053477 -0.512855 0.230469 -0.825230
USER    NEWDPF dihe0	101.50 101.44 154.63 16.42 68.56 128.91 45.16 -120.54 115.13 -47.19 9.95 -169.96 -37.36 83.79 62.29 -118.51 162.59 156.93 30.54 -40.69 -178.75 44.03 26.33 -176.29 
USER  
USER                              x       y       z    vdW   Elec        q     RMS 
ATOM      1  C   UNL d   1      15.010  13.024  -8.307 -0.13 -0.05    +0.194    18.192
ATOM      2  C   UNL d   1      15.135  11.821  -9.244 -0.21 -0.07    +0.194    18.192
ATOM      3  C   UNL d   1      14.137  11.899 -10.402 -0.06 -0.08    +0.194    18.192
ATOM      4  C   UNL d   1      14.192  13.226 -11.155 -0.07 -0.04    +0.194    18.192
ATOM      5  C   UNL d   1      14.186  14.453 -10.251 -0.03 -0.03    +0.194    18.192
ATOM      6  C   UNL d   1      15.140  14.349  -9.059 -0.03 -0.04    +0.194    18.192
ATOM      7  O   UNL d   1      16.081  12.964  -7.361 -0.07 +0.07    -0.278    18.192
ATOM      8  P   UNL d   1      15.827  12.216  -5.973 -0.22 -0.14    +0.473    18.192
ATOM      9  O   UNL d   1      14.606  11.366  -5.928 -0.43 +0.06    -0.228    18.192
ATOM     10  O   UNL d   1      17.173  11.396  -5.724 -0.26 +0.12    -0.303    18.192
ATOM     11  H   UNL d   1      17.344  10.811  -6.485 -0.18 -0.11    +0.222    18.192
ATOM     12  O   UNL d   1      15.921  13.354  -4.868 -0.17 +0.09    -0.303    18.192
ATOM     13  H   UNL d   1      15.296  14.097  -5.025 +0.10 -0.09    +0.222    18.192
ATOM     14  O   UNL d   1      16.461  11.787  -9.787 -0.16 +0.07    -0.278    18.192
ATOM     15  P   UNL d   1      17.546  10.939  -8.970 -0.21 -0.13    +0.473    18.192
ATOM     16  O   UNL d   1      18.500  10.114  -9.776 -0.86 +0.12    -0.228    18.192
ATOM     17  O   UNL d   1      18.282  12.022  -8.063 -0.11 +0.08    -0.303    18.192
ATOM     18  H   UNL d   1      17.649  12.478  -7.476 +0.09 -0.06    +0.222    18.192
ATOM     19  O   UNL d   1      16.695  10.142  -7.888 -0.46 +0.08    -0.303    18.192
ATOM     20  H   UNL d   1      16.017  10.708  -7.475 +0.12 -0.07    +0.222    18.192
ATOM     21  O   UNL d   1      14.776  15.384  -8.149 -0.02 +0.07    -0.278    18.192
ATOM     22  P   UNL d   1      13.515  15.189  -7.191 -0.10 -0.15    +0.473    18.192
ATOM     23  O   UNL d   1      13.744  14.622  -5.831 -0.28 +0.11    -0.228    18.192
ATOM     24  O   UNL d   1      12.866  16.642  -7.208 -0.07 +0.10    -0.303    18.192
ATOM     25  H   UNL d   1      13.397  17.210  -7.822 +0.04 -0.06    +0.222    18.192
ATOM     26  O   UNL d   1      12.513  14.368  -8.136 -0.13 +0.06    -0.303    18.192
ATOM     27  H   UNL d   1      12.499  14.778  -9.024 +0.07 -0.04    +0.222    18.192
ATOM     28  O   UNL d   1      14.506  10.910 -11.353 -0.25 +0.11    -0.278    18.192
ATOM     29  P   UNL d   1      13.418  10.299 -12.343 -0.17 -0.16    +0.473    18.192
ATOM     30  O   UNL d   1      13.586   8.860 -12.671 -0.60 +0.10    -0.228    18.192
ATOM     31  O   UNL d   1      12.077  10.717 -11.575 -0.14 +0.11    -0.303    18.192
ATOM     32  H   UNL d   1      11.733  11.549 -11.974 +0.08 -0.05    +0.222    18.192
ATOM     33  O   UNL d   1      13.460  11.324 -13.560 -0.08 +0.06    -0.303    18.192
ATOM     34  H   UNL d   1      13.201  12.221 -13.234 +0.05 -0.04    +0.222    18.192
ATOM     35  O   UNL d   1      14.644  15.533 -11.063 -0.00 +0.04    -0.278    18.192
ATOM     36  P   UNL d   1      14.274  17.037 -10.683 +0.00 -0.06    +0.473    18.192
ATOM     37  O   UNL d   1      14.228  17.998 -11.828 +0.00 +0.02    -0.228    18.192
ATOM     38  O   UNL d   1      12.885  16.851  -9.928 -0.00 +0.04    -0.303    18.192
ATOM     39  H   UNL d   1      12.959  16.100  -9.300 +0.04 -0.03    +0.222    18.192
ATOM     40  O   UNL d   1      15.305  17.356  -9.515 -0.00 +0.05    -0.303    18.192
ATOM     41  H   UNL d   1      14.945  17.109  -8.634 +0.02 -0.05    +0.222    18.192
ATOM     42  O   UNL d   1      13.012  13.293 -11.963 -0.04 +0.05    -0.278    18.192
ATOM     43  P   UNL d   1      11.606  13.550 -11.256 -0.10 -0.07    +0.473    18.192
ATOM     44  O   UNL d   1      10.381  13.115 -11.984 -0.18 +0.02    -0.228    18.192
ATOM     45  O   UNL d   1      11.798  12.860  -9.835 -0.22 +0.08    -0.303    18.192
ATOM     46  H   UNL d   1      11.945  11.896  -9.922 -0.06 -0.10    +0.222    18.192
ATOM     47  O   UNL d   1      11.667  15.105 -10.873 -0.02 +0.03    -0.303    18.192
ATOM     48  H   UNL d   1      12.457  15.509 -11.289 +0.03 -0.02    +0.222    18.192
TER
ENDMDL
MODEL       11
USER    Run = 11
USER    Cluster Rank = 19
USER    Number of conformations in this cluster = 2
USER  
USER    RMSD from reference structure       = 17.757 A
USER  
USER    Estimated Free Energy of Binding    =   +1.81 kcal/mol  [=(1)+(2)+(3)-(4)]
USER    
USER    (1) Final Intermolecular Energy     =   -5.35 kcal/mol
USER        vdW + Hbond + desolv Energy     =   -4.96 kcal/mol
USER        Electrostatic Energy            =   -0.38 kcal/mol
USER    (2) Final Total Internal Energy     =  -11.62 kcal/mol
USER    (3) Torsional Free Energy           =   +7.16 kcal/mol
USER    (4) Unbound System's Energy  [=(2)] =  -11.62 kcal/mol
USER    
USER    
USER  
USER    DPF = D:/Protein_go_brrr/autodock/final/mut_Y35F/IHP/dock.dpf
USER    NEWDPF move	IHP_ideal_opt.pdbqt
USER    NEWDPF about	0.035000 0.082000 -0.065000
USER    NEWDPF tran0	12.003101 14.455752 -9.871295
USER    NEWDPF axisangle0	0.642030 0.431132 -0.633974 -83.173826
USER    NEWDPF quaternion0	0.426151 0.286166 -0.420803 -0.747950
USER    NEWDPF dihe0	-137.67 -6.36 57.21 93.60 -89.54 60.67 54.75 10.62 -153.23 35.86 31.41 95.69 96.17 -36.48 -136.97 -173.60 163.38 -96.45 -18.53 -8.93 147.54 154.24 176.60 -121.05 
USER  
USER                              x       y       z    vdW   Elec        q     RMS 
ATOM      1  C   UNL d   1      11.886  13.027 -10.835 -0.20 -0.04    +0.194    17.757
ATOM      2  C   UNL d   1      10.557  13.605 -10.347 -0.25 -0.03    +0.194    17.757
ATOM      3  C   UNL d   1      10.633  14.040  -8.882 -0.33 -0.02    +0.194    17.757
ATOM      4  C   UNL d   1      11.808  14.970  -8.590 -0.15 -0.03    +0.194    17.757
ATOM      5  C   UNL d   1      13.136  14.488  -9.160 -0.08 -0.04    +0.194    17.757
ATOM      6  C   UNL d   1      13.048  13.995 -10.606 -0.07 -0.03    +0.194    17.757
ATOM      7  O   UNL d   1      11.787  12.808 -12.244 -0.09 +0.04    -0.278    17.757
ATOM      8  P   UNL d   1      12.458  11.494 -12.858 -0.12 -0.09    +0.473    17.757
ATOM      9  O   UNL d   1      11.761  10.923 -14.042 -0.11 +0.03    -0.228    17.757
ATOM     10  O   UNL d   1      13.960  11.936 -13.166 -0.06 +0.06    -0.303    17.757
ATOM     11  H   UNL d   1      14.416  12.150 -12.331 +0.06 -0.05    +0.222    17.757
ATOM     12  O   UNL d   1      12.647  10.512 -11.623 -0.07 +0.14    -0.303    17.757
ATOM     13  H   UNL d   1      13.109  10.933 -10.863 -0.35 -0.16    +0.222    17.757
ATOM     14  O   UNL d   1      10.223  14.747 -11.146 -0.09 +0.02    -0.278    17.757
ATOM     15  P   UNL d   1       8.814  14.701 -11.906 -0.12 -0.00    +0.473    17.757
ATOM     16  O   UNL d   1       7.805  13.722 -11.393 -0.22 -0.01    -0.228    17.757
ATOM     17  O   UNL d   1       8.296  16.206 -11.854 -0.04 -0.00    -0.303    17.757
ATOM     18  H   UNL d   1       8.507  16.621 -10.995 +0.05 +0.01    +0.222    17.757
ATOM     19  O   UNL d   1       9.198  14.549 -13.442 -0.05 +0.01    -0.303    17.757
ATOM     20  H   UNL d   1      10.005  14.015 -13.561 +0.04 -0.01    +0.222    17.757
ATOM     21  O   UNL d   1      14.250  13.276 -10.870 -0.05 +0.06    -0.278    17.757
ATOM     22  P   UNL d   1      14.798  12.228  -9.799 -0.10 -0.15    +0.473    17.757
ATOM     23  O   UNL d   1      16.002  12.599  -9.001 -0.09 +0.06    -0.228    17.757
ATOM     24  O   UNL d   1      13.492  11.929  -8.939 +0.05 +0.15    -0.303    17.757
ATOM     25  H   UNL d   1      13.778  11.621  -8.042 -0.18 -0.09    +0.222    17.757
ATOM     26  O   UNL d   1      14.924  10.896 -10.683 -0.26 +0.13    -0.303    17.757
ATOM     27  H   UNL d   1      14.275  10.236 -10.364 -0.47 -0.19    +0.222    17.757
ATOM     28  O   UNL d   1       9.468  14.806  -8.602 -0.30 -0.00    -0.278    17.757
ATOM     29  P   UNL d   1       9.507  16.395  -8.700 -0.10 +0.01    +0.473    17.757
ATOM     30  O   UNL d   1       8.186  17.061  -8.838 -0.12 -0.03    -0.228    17.757
ATOM     31  O   UNL d   1      10.358  16.735  -7.389 -0.11 +0.01    -0.303    17.757
ATOM     32  H   UNL d   1      11.263  17.011  -7.665 +0.06 -0.03    +0.222    17.757
ATOM     33  O   UNL d   1      10.558  16.631  -9.873 -0.02 +0.02    -0.303    17.757
ATOM     34  H   UNL d   1      10.156  16.338 -10.728 +0.05 -0.01    +0.222    17.757
ATOM     35  O   UNL d   1      13.995  15.627  -9.156 -0.01 +0.05    -0.278    17.757
ATOM     36  P   UNL d   1      13.527  16.989  -9.841 +0.01 -0.07    +0.473    17.757
ATOM     37  O   UNL d   1      14.626  17.861 -10.360 +0.00 +0.03    -0.228    17.757
ATOM     38  O   UNL d   1      12.524  16.464 -10.961 -0.00 +0.03    -0.303    17.757
ATOM     39  H   UNL d   1      11.726  17.035 -10.972 +0.02 -0.02    +0.222    17.757
ATOM     40  O   UNL d   1      12.570  17.615  -8.735 -0.01 +0.05    -0.303    17.757
ATOM     41  H   UNL d   1      12.433  16.998  -7.982 +0.05 -0.05    +0.222    17.757
ATOM     42  O   UNL d   1      11.954  15.020  -7.167 -0.19 +0.05    -0.278    17.757
ATOM     43  P   UNL d   1      13.384  14.724  -6.527 -0.18 -0.17    +0.473    17.757
ATOM     44  O   UNL d   1      14.085  13.482  -6.958 -0.20 +0.06    -0.228    17.757
ATOM     45  O   UNL d   1      14.188  16.063  -6.832 -0.08 +0.14    -0.303    17.757
ATOM     46  H   UNL d   1      14.007  16.391  -7.736 +0.04 -0.07    +0.222    17.757
ATOM     47  O   UNL d   1      13.116  14.856  -4.952 -0.09 +0.22    -0.303    17.757
ATOM     48  H   UNL d   1      13.194  15.797  -4.690 -0.43 -0.36    +0.222    17.757
TER
ENDMDL
MODEL       67
USER    Run = 67
USER    Cluster Rank = 20
USER    Number of conformations in this cluster = 1
USER  
USER    RMSD from reference structure       = 15.088 A
USER  
USER    Estimated Free Energy of Binding    =   +1.83 kcal/mol  [=(1)+(2)+(3)-(4)]
USER    
USER    (1) Final Intermolecular Energy     =   -5.33 kcal/mol
USER        vdW + Hbond + desolv Energy     =   -5.04 kcal/mol
USER        Electrostatic Energy            =   -0.29 kcal/mol
USER    (2) Final Total Internal Energy     =  -12.88 kcal/mol
USER    (3) Torsional Free Energy           =   +7.16 kcal/mol
USER    (4) Unbound System's Energy  [=(2)] =  -12.88 kcal/mol
USER    
USER    
USER  
USER    DPF = D:/Protein_go_brrr/autodock/final/mut_Y35F/IHP/dock.dpf
USER    NEWDPF move	IHP_ideal_opt.pdbqt
USER    NEWDPF about	0.035000 0.082000 -0.065000
USER    NEWDPF tran0	6.014498 -17.288976 0.797510
USER    NEWDPF axisangle0	0.947173 0.188529 0.259462 -111.166933
USER    NEWDPF quaternion0	0.781370 0.155527 0.214044 -0.565205
USER    NEWDPF dihe0	-80.26 -141.60 24.46 48.40 12.39 -153.10 -108.47 -20.43 15.45 52.85 141.30 119.36 -166.60 161.28 -11.49 41.31 -180.00 54.59 53.24 -0.12 2.84 -2.14 -27.77 -11.36 
USER  
USER                              x       y       z    vdW   Elec        q     RMS 
ATOM      1  C   UNL d   1       7.495 -17.050  -0.060 -0.10 -0.03    +0.194    15.088
ATOM      2  C   UNL d   1       6.232 -17.102  -0.923 -0.13 -0.05    +0.194    15.088
ATOM      3  C   UNL d   1       5.290 -18.224  -0.480 -0.11 -0.04    +0.194    15.088
ATOM      4  C   UNL d   1       4.969 -18.186   1.012 -0.15 -0.04    +0.194    15.088
ATOM      5  C   UNL d   1       6.191 -18.018   1.906 -0.08 -0.03    +0.194    15.088
ATOM      6  C   UNL d   1       7.164 -16.938   1.429 -0.12 -0.03    +0.194    15.088
ATOM      7  O   UNL d   1       8.233 -15.880  -0.421 -0.22 +0.04    -0.278    15.088
ATOM      8  P   UNL d   1       8.928 -15.835  -1.859 +0.10 -0.18    +0.473    15.088
ATOM      9  O   UNL d   1      10.416 -15.790  -1.839 -0.46 +0.09    -0.228    15.088
ATOM     10  O   UNL d   1       8.349 -17.118  -2.609 -0.03 +0.10    -0.303    15.088
ATOM     11  H   UNL d   1       7.899 -16.842  -3.429 +0.04 -0.09    +0.222    15.088
ATOM     12  O   UNL d   1       8.208 -14.646  -2.629 -0.31 +0.34    -0.303    15.088
ATOM     13  H   UNL d   1       8.621 -14.444  -3.499 -0.50 -0.48    +0.222    15.088
ATOM     14  O   UNL d   1       5.539 -15.853  -0.812 -0.21 +0.10    -0.278    15.088
ATOM     15  P   UNL d   1       5.077 -15.166  -2.183 -0.17 -0.15    +0.473    15.088
ATOM     16  O   UNL d   1       5.156 -13.673  -2.246 -0.96 +0.03    -0.228    15.088
ATOM     17  O   UNL d   1       5.970 -15.879  -3.293 -0.09 +0.11    -0.303    15.088
ATOM     18  H   UNL d   1       6.902 -15.593  -3.232 +0.08 -0.11    +0.222    15.088
ATOM     19  O   UNL d   1       3.644 -15.790  -2.476 -0.19 +0.12    -0.303    15.088
ATOM     20  H   UNL d   1       3.454 -16.547  -1.891 -0.28 -0.10    +0.222    15.088
ATOM     21  O   UNL d   1       8.382 -17.135   2.143 -0.03 +0.04    -0.278    15.088
ATOM     22  P   UNL d   1       8.708 -16.232   3.417 -0.03 -0.06    +0.473    15.088
ATOM     23  O   UNL d   1       7.581 -15.511   4.077 -0.08 +0.04    -0.228    15.088
ATOM     24  O   UNL d   1       9.484 -17.257   4.354 -0.00 +0.03    -0.303    15.088
ATOM     25  H   UNL d   1       8.918 -18.063   4.466 +0.01 -0.02    +0.222    15.088
ATOM     26  O   UNL d   1       9.903 -15.315   2.868 -0.09 +0.05    -0.303    15.088
ATOM     27  H   UNL d   1       9.768 -15.148   1.913 +0.05 -0.04    +0.222    15.088
ATOM     28  O   UNL d   1       4.046 -18.023  -1.139 -0.16 +0.07    -0.278    15.088
ATOM     29  P   UNL d   1       3.590 -19.000  -2.311 -0.08 -0.07    +0.473    15.088
ATOM     30  O   UNL d   1       4.340 -20.279  -2.408 -0.02 +0.03    -0.228    15.088
ATOM     31  O   UNL d   1       2.024 -19.099  -1.998 -0.17 +0.02    -0.303    15.088
ATOM     32  H   UNL d   1       1.908 -19.422  -1.075 +0.06 +0.01    +0.222    15.088
ATOM     33  O   UNL d   1       3.635 -18.042  -3.582 -0.08 +0.07    -0.303    15.088
ATOM     34  H   UNL d   1       4.419 -17.445  -3.506 +0.08 -0.06    +0.222    15.088
ATOM     35  O   UNL d   1       5.689 -17.600   3.174 -0.07 +0.05    -0.278    15.088
ATOM     36  P   UNL d   1       5.587 -18.639   4.381 -0.02 -0.06    +0.473    15.088
ATOM     37  O   UNL d   1       4.314 -18.593   5.164 -0.07 +0.04    -0.228    15.088
ATOM     38  O   UNL d   1       5.852 -20.024   3.642 -0.01 +0.03    -0.303    15.088
ATOM     39  H   UNL d   1       5.218 -20.119   2.899 +0.03 -0.02    +0.222    15.088
ATOM     40  O   UNL d   1       6.936 -18.366   5.178 -0.00 +0.03    -0.303    15.088
ATOM     41  H   UNL d   1       7.387 -17.551   4.863 +0.03 -0.03    +0.222    15.088
ATOM     42  O   UNL d   1       4.377 -19.447   1.341 -0.08 +0.03    -0.278    15.088
ATOM     43  P   UNL d   1       2.920 -19.469   1.990 -0.14 -0.03    +0.473    15.088
ATOM     44  O   UNL d   1       1.772 -19.776   1.092 -0.12 -0.02    -0.228    15.088
ATOM     45  O   UNL d   1       3.092 -20.489   3.199 -0.05 +0.02    -0.303    15.088
ATOM     46  H   UNL d   1       3.672 -20.124   3.897 +0.03 -0.02    +0.222    15.088
ATOM     47  O   UNL d   1       2.840 -18.064   2.759 +0.02 +0.09    -0.303    15.088
ATOM     48  H   UNL d   1       3.535 -18.034   3.449 -0.17 -0.07    +0.222    15.088
TER
ENDMDL
MODEL       28
USER    Run = 28
USER    Cluster Rank = 21
USER    Number of conformations in this cluster = 1
USER  
USER    RMSD from reference structure       = 18.751 A
USER  
USER    Estimated Free Energy of Binding    =   +1.98 kcal/mol  [=(1)+(2)+(3)-(4)]
USER    
USER    (1) Final Intermolecular Energy     =   -5.18 kcal/mol
USER        vdW + Hbond + desolv Energy     =   -4.36 kcal/mol
USER        Electrostatic Energy            =   -0.82 kcal/mol
USER    (2) Final Total Internal Energy     =  -12.89 kcal/mol
USER    (3) Torsional Free Energy           =   +7.16 kcal/mol
USER    (4) Unbound System's Energy  [=(2)] =  -12.89 kcal/mol
USER    
USER    
USER  
USER    DPF = D:/Protein_go_brrr/autodock/final/mut_Y35F/IHP/dock.dpf
USER    NEWDPF move	IHP_ideal_opt.pdbqt
USER    NEWDPF about	0.035000 0.082000 -0.065000
USER    NEWDPF tran0	-17.383370 -7.719147 12.895324
USER    NEWDPF axisangle0	-0.034017 0.761534 0.647232 -98.253137
USER    NEWDPF quaternion0	-0.025722 0.575839 0.489409 -0.654390
USER    NEWDPF dihe0	116.46 47.04 9.40 90.98 -8.88 100.34 -101.92 -29.68 95.49 -35.49 -121.37 179.92 168.02 -83.92 -180.00 -180.00 -180.00 159.53 54.75 10.77 177.91 -10.42 16.19 -180.00 
USER  
USER                              x       y       z    vdW   Elec        q     RMS 
ATOM      1  C   UNL d   1     -16.390  -6.943  11.714 -0.09 -0.07    +0.194    18.751
ATOM      2  C   UNL d   1     -15.943  -8.343  12.136 -0.09 -0.01    +0.194    18.751
ATOM      3  C   UNL d   1     -16.046  -8.539  13.650 -0.04 -0.02    +0.194    18.751
ATOM      4  C   UNL d   1     -17.419  -8.178  14.211 -0.00 -0.02    +0.194    18.751
ATOM      5  C   UNL d   1     -17.956  -6.838  13.724 -0.01 -0.04    +0.194    18.751
ATOM      6  C   UNL d   1     -17.797  -6.617  12.219 -0.03 -0.04    +0.194    18.751
ATOM      7  O   UNL d   1     -16.429  -6.898  10.286 -0.11 +0.07    -0.278    18.751
ATOM      8  P   UNL d   1     -15.049  -6.991   9.486 -0.24 -0.08    +0.473    18.751
ATOM      9  O   UNL d   1     -14.948  -6.102   8.297 -0.89 +0.02    -0.228    18.751
ATOM     10  O   UNL d   1     -13.940  -6.690  10.592 -0.37 +0.15    -0.303    18.751
ATOM     11  H   UNL d   1     -14.240  -5.961  11.166 -0.48 -0.46    +0.222    18.751
ATOM     12  O   UNL d   1     -14.834  -8.542   9.213 -0.26 -0.06    -0.303    18.751
ATOM     13  H   UNL d   1     -15.572  -9.099   9.549 +0.10 +0.03    +0.222    18.751
ATOM     14  O   UNL d   1     -16.778  -9.314  11.493 -0.04 -0.01    -0.278    18.751
ATOM     15  P   UNL d   1     -16.062 -10.660  11.001 -0.11 +0.10    +0.473    18.751
ATOM     16  O   UNL d   1     -14.613 -10.557  10.640 -0.16 -0.16    -0.228    18.751
ATOM     17  O   UNL d   1     -16.334 -11.696  12.180 -0.03 -0.05    -0.303    18.751
ATOM     18  H   UNL d   1     -15.653 -11.624  12.875 +0.03 +0.05    +0.222    18.751
ATOM     19  O   UNL d   1     -17.016 -11.220   9.857 -0.17 -0.02    -0.303    18.751
ATOM     20  H   UNL d   1     -17.467 -10.500   9.379 +0.07 -0.00    +0.222    18.751
ATOM     21  O   UNL d   1     -18.016  -5.229  11.980 -0.04 +0.07    -0.278    18.751
ATOM     22  P   UNL d   1     -16.882  -4.172  12.359 -0.09 -0.26    +0.473    18.751
ATOM     23  O   UNL d   1     -17.304  -2.798  12.757 -0.15 +0.07    -0.228    18.751
ATOM     24  O   UNL d   1     -16.056  -4.963  13.466 -0.08 +0.29    -0.303    18.751
ATOM     25  H   UNL d   1     -16.584  -4.962  14.304 +0.04 -0.11    +0.222    18.751
ATOM     26  O   UNL d   1     -15.910  -4.268  11.088 -0.13 +0.29    -0.303    18.751
ATOM     27  H   UNL d   1     -15.407  -5.107  11.131 -0.37 -0.33    +0.222    18.751
ATOM     28  O   UNL d   1     -15.883  -9.926  13.915 -0.01 -0.03    -0.278    18.751
ATOM     29  P   UNL d   1     -14.480 -10.490  14.418 -0.03 +0.13    +0.473    18.751
ATOM     30  O   UNL d   1     -14.541 -11.742  15.214 -0.00 -0.03    -0.228    18.751
ATOM     31  O   UNL d   1     -13.690 -10.550  13.028 -0.58 -0.40    -0.303    18.751
ATOM     32  H   UNL d   1     -14.249 -11.023  12.369 +0.03 +0.20    +0.222    18.751
ATOM     33  O   UNL d   1     -13.844  -9.215  15.129 -0.05 -0.01    -0.303    18.751
ATOM     34  H   UNL d   1     -14.572  -8.649  15.485 +0.02 -0.03    +0.222    18.751
ATOM     35  O   UNL d   1     -19.355  -6.859  14.000 +0.00 +0.03    -0.278    18.751
ATOM     36  P   UNL d   1     -20.118  -5.513  14.390 +0.01 -0.03    +0.473    18.751
ATOM     37  O   UNL d   1     -21.071  -5.622  15.538 +0.00 +0.01    -0.228    18.751
ATOM     38  O   UNL d   1     -18.906  -4.511  14.639 -0.01 +0.04    -0.303    18.751
ATOM     39  H   UNL d   1     -18.127  -4.815  14.124 +0.03 -0.05    +0.222    18.751
ATOM     40  O   UNL d   1     -20.720  -5.046  12.994 -0.00 +0.02    -0.303    18.751
ATOM     41  H   UNL d   1     -20.035  -4.635  12.422 +0.03 -0.02    +0.222    18.751
ATOM     42  O   UNL d   1     -17.275  -8.083  15.632 +0.00 +0.03    -0.278    18.751
ATOM     43  P   UNL d   1     -16.424  -6.879  16.242 -0.01 -0.10    +0.473    18.751
ATOM     44  O   UNL d   1     -15.805  -7.085  17.581 -0.01 +0.03    -0.228    18.751
ATOM     45  O   UNL d   1     -15.378  -6.570  15.083 -0.08 +0.18    -0.303    18.751
ATOM     46  H   UNL d   1     -14.935  -5.708  15.221 +0.03 -0.19    +0.222    18.751
ATOM     47  O   UNL d   1     -17.420  -5.629  16.124 -0.01 +0.05    -0.303    18.751
ATOM     48  H   UNL d   1     -18.256  -5.921  15.705 +0.01 -0.03    +0.222    18.751
TER
ENDMDL
MODEL       66
USER    Run = 66
USER    Cluster Rank = 22
USER    Number of conformations in this cluster = 1
USER  
USER    RMSD from reference structure       = 17.985 A
USER  
USER    Estimated Free Energy of Binding    =   +2.05 kcal/mol  [=(1)+(2)+(3)-(4)]
USER    
USER    (1) Final Intermolecular Energy     =   -5.11 kcal/mol
USER        vdW + Hbond + desolv Energy     =   -5.04 kcal/mol
USER        Electrostatic Energy            =   -0.07 kcal/mol
USER    (2) Final Total Internal Energy     =  -13.17 kcal/mol
USER    (3) Torsional Free Energy           =   +7.16 kcal/mol
USER    (4) Unbound System's Energy  [=(2)] =  -13.17 kcal/mol
USER    
USER    
USER  
USER    DPF = D:/Protein_go_brrr/autodock/final/mut_Y35F/IHP/dock.dpf
USER    NEWDPF move	IHP_ideal_opt.pdbqt
USER    NEWDPF about	0.035000 0.082000 -0.065000
USER    NEWDPF tran0	14.036517 13.272256 -9.822596
USER    NEWDPF axisangle0	0.769997 -0.474278 0.426809 -66.762843
USER    NEWDPF quaternion0	0.423660 -0.260952 0.234834 -0.835026
USER    NEWDPF dihe0	-107.27 27.48 179.26 87.77 21.01 -116.93 -21.68 -130.69 15.28 25.15 -19.05 161.81 -179.59 38.70 -13.19 81.25 166.44 -180.00 60.82 11.87 165.12 -15.56 -14.92 -28.97 
USER  
USER                              x       y       z    vdW   Elec        q     RMS 
ATOM      1  C   UNL d   1      15.338  12.359  -9.147 -0.15 -0.05    +0.194    17.985
ATOM      2  C   UNL d   1      14.978  12.025 -10.596 -0.17 -0.06    +0.194    17.985
ATOM      3  C   UNL d   1      13.463  11.952 -10.801 -0.04 -0.07    +0.194    17.985
ATOM      4  C   UNL d   1      12.727  13.189 -10.294 -0.15 -0.05    +0.194    17.985
ATOM      5  C   UNL d   1      13.140  13.626  -8.894 -0.16 -0.04    +0.194    17.985
ATOM      6  C   UNL d   1      14.653  13.640  -8.671 -0.09 -0.05    +0.194    17.985
ATOM      7  O   UNL d   1      16.749  12.578  -9.078 -0.06 +0.07    -0.278    17.985
ATOM      8  P   UNL d   1      17.724  11.372  -9.460 -0.20 -0.13    +0.473    17.985
ATOM      9  O   UNL d   1      18.766  11.057  -8.445 -0.41 +0.08    -0.228    17.985
ATOM     10  O   UNL d   1      16.737  10.152  -9.746 -0.38 +0.09    -0.303    17.985
ATOM     11  H   UNL d   1      16.551  10.100 -10.703 +0.11 -0.07    +0.222    17.985
ATOM     12  O   UNL d   1      18.257  11.718 -10.916 -0.12 +0.07    -0.303    17.985
ATOM     13  H   UNL d   1      17.707  12.390 -11.379 +0.05 -0.04    +0.222    17.985
ATOM     14  O   UNL d   1      15.506  13.043 -11.455 -0.04 +0.05    -0.278    17.985
ATOM     15  P   UNL d   1      16.063  12.562 -12.877 -0.05 -0.07    +0.473    17.985
ATOM     16  O   UNL d   1      15.110  12.630 -14.030 -0.04 +0.03    -0.228    17.985
ATOM     17  O   UNL d   1      17.368  13.447 -13.102 -0.02 +0.04    -0.303    17.985
ATOM     18  H   UNL d   1      18.141  13.055 -12.651 +0.03 -0.03    +0.222    17.985
ATOM     19  O   UNL d   1      16.693  11.130 -12.593 +0.11 +0.02    -0.303    17.985
ATOM     20  H   UNL d   1      16.255  10.685 -11.843 +0.08 -0.03    +0.222    17.985
ATOM     21  O   UNL d   1      14.861  13.727  -7.263 -0.09 +0.08    -0.278    17.985
ATOM     22  P   UNL d   1      14.349  12.551  -6.313 -0.25 -0.14    +0.473    17.985
ATOM     23  O   UNL d   1      14.019  11.236  -6.935 -0.38 +0.06    -0.228    17.985
ATOM     24  O   UNL d   1      15.497  12.499  -5.212 -0.27 +0.08    -0.303    17.985
ATOM     25  H   UNL d   1      16.372  12.541  -5.676 +0.12 -0.06    +0.222    17.985
ATOM     26  O   UNL d   1      13.158  13.271  -5.517 -0.31 +0.11    -0.303    17.985
ATOM     27  H   UNL d   1      12.419  13.446  -6.134 +0.13 -0.06    +0.222    17.985
ATOM     28  O   UNL d   1      13.222  11.917 -12.202 -0.10 +0.07    -0.278    17.985
ATOM     29  P   UNL d   1      13.029  10.524 -12.951 -0.18 -0.12    +0.473    17.985
ATOM     30  O   UNL d   1      11.963   9.646 -12.405 -0.42 +0.05    -0.228    17.985
ATOM     31  O   UNL d   1      12.847  11.039 -14.455 -0.05 +0.05    -0.303    17.985
ATOM     32  H   UNL d   1      13.356  11.875 -14.564 +0.04 -0.03    +0.222    17.985
ATOM     33  O   UNL d   1      14.510   9.939 -12.956 -0.19 +0.10    -0.303    17.985
ATOM     34  H   UNL d   1      15.058  10.459 -13.593 -0.03 -0.06    +0.222    17.985
ATOM     35  O   UNL d   1      12.683  14.971  -8.759 -0.06 +0.05    -0.278    17.985
ATOM     36  P   UNL d   1      11.565  15.335  -7.681 -0.12 -0.07    +0.473    17.985
ATOM     37  O   UNL d   1      10.665  16.473  -8.045 -0.11 +0.01    -0.228    17.985
ATOM     38  O   UNL d   1      10.817  13.941  -7.502 -0.32 +0.02    -0.303    17.985
ATOM     39  H   UNL d   1      10.519  13.622  -8.381 +0.07 -0.03    +0.222    17.985
ATOM     40  O   UNL d   1      12.417  15.487  -6.346 -0.20 +0.11    -0.303    17.985
ATOM     41  H   UNL d   1      13.308  15.083  -6.435 +0.09 -0.09    +0.222    17.985
ATOM     42  O   UNL d   1      11.338  12.851 -10.237 -0.25 +0.06    -0.278    17.985
ATOM     43  P   UNL d   1      10.260  13.936 -10.691 -0.16 -0.05    +0.473    17.985
ATOM     44  O   UNL d   1       9.074  14.135  -9.813 -0.26 +0.01    -0.228    17.985
ATOM     45  O   UNL d   1      11.145  15.242 -10.895 -0.03 +0.03    -0.303    17.985
ATOM     46  H   UNL d   1      11.181  15.782 -10.080 +0.05 -0.02    +0.222    17.985
ATOM     47  O   UNL d   1       9.938  13.520 -12.205 -0.14 +0.02    -0.303    17.985
ATOM     48  H   UNL d   1      10.662  12.955 -12.546 +0.06 -0.02    +0.222    17.985
TER
ENDMDL
MODEL       13
USER    Run = 13
USER    Cluster Rank = 23
USER    Number of conformations in this cluster = 1
USER  
USER    RMSD from reference structure       = 13.027 A
USER  
USER    Estimated Free Energy of Binding    =   +2.14 kcal/mol  [=(1)+(2)+(3)-(4)]
USER    
USER    (1) Final Intermolecular Energy     =   -5.02 kcal/mol
USER        vdW + Hbond + desolv Energy     =   -4.83 kcal/mol
USER        Electrostatic Energy            =   -0.19 kcal/mol
USER    (2) Final Total Internal Energy     =  -13.69 kcal/mol
USER    (3) Torsional Free Energy           =   +7.16 kcal/mol
USER    (4) Unbound System's Energy  [=(2)] =  -13.69 kcal/mol
USER    
USER    
USER  
USER    DPF = D:/Protein_go_brrr/autodock/final/mut_Y35F/IHP/dock.dpf
USER    NEWDPF move	IHP_ideal_opt.pdbqt
USER    NEWDPF about	0.035000 0.082000 -0.065000
USER    NEWDPF tran0	-3.787262 -7.748224 -13.582099
USER    NEWDPF axisangle0	-0.461013 -0.867383 0.187386 -164.556672
USER    NEWDPF quaternion0	-0.456833 -0.859518 0.185687 -0.134361
USER    NEWDPF dihe0	87.46 74.81 -8.61 -76.81 68.32 -142.23 -76.02 -45.49 31.49 108.64 173.46 137.91 150.56 170.64 118.85 39.95 -74.44 -162.92 -8.21 -40.91 -12.23 -13.63 -179.97 16.56 
USER  
USER                              x       y       z    vdW   Elec        q     RMS 
ATOM      1  C   UNL d   1      -5.442  -7.313 -13.821 -0.05 -0.01    +0.194    13.027
ATOM      2  C   UNL d   1      -5.203  -8.696 -13.212 -0.09 -0.01    +0.194    13.027
ATOM      3  C   UNL d   1      -4.062  -9.435 -13.913 -0.08 -0.01    +0.194    13.027
ATOM      4  C   UNL d   1      -2.778  -8.614 -14.001 -0.10 -0.00    +0.194    13.027
ATOM      5  C   UNL d   1      -2.986  -7.188 -14.496 -0.04 +0.00    +0.194    13.027
ATOM      6  C   UNL d   1      -4.166  -6.470 -13.838 -0.06 +0.00    +0.194    13.027
ATOM      7  O   UNL d   1      -6.396  -6.626 -13.007 -0.08 +0.01    -0.278    13.027
ATOM      8  P   UNL d   1      -7.643  -5.930 -13.723 -0.06 -0.01    +0.473    13.027
ATOM      9  O   UNL d   1      -8.287  -4.837 -12.945 -0.60 -0.02    -0.228    13.027
ATOM     10  O   UNL d   1      -7.061  -5.444 -15.127 -0.00 +0.00    -0.303    13.027
ATOM     11  H   UNL d   1      -6.445  -4.700 -14.985 +0.01 +0.00    +0.222    13.027
ATOM     12  O   UNL d   1      -8.593  -7.128 -14.154 -0.03 +0.01    -0.303    13.027
ATOM     13  H   UNL d   1      -8.525  -7.908 -13.558 +0.04 -0.02    +0.222    13.027
ATOM     14  O   UNL d   1      -4.866  -8.545 -11.827 +0.14 +0.01    -0.278    13.027
ATOM     15  P   UNL d   1      -6.083  -8.572 -10.787 -0.05 -0.08    +0.473    13.027
ATOM     16  O   UNL d   1      -6.090  -7.510  -9.732 -0.35 +0.03    -0.228    13.027
ATOM     17  O   UNL d   1      -7.382  -8.535 -11.709 -0.13 +0.09    -0.303    13.027
ATOM     18  H   UNL d   1      -7.795  -7.650 -11.699 -0.37 -0.10    +0.222    13.027
ATOM     19  O   UNL d   1      -6.114 -10.070 -10.252 -0.25 +0.09    -0.303    13.027
ATOM     20  H   UNL d   1      -7.024 -10.418 -10.207 -0.41 -0.13    +0.222    13.027
ATOM     21  O   UNL d   1      -4.439  -5.315 -14.629 -0.01 -0.00    -0.278    13.027
ATOM     22  P   UNL d   1      -4.221  -3.862 -14.009 -0.03 +0.01    +0.473    13.027
ATOM     23  O   UNL d   1      -3.822  -2.756 -14.927 -0.02 -0.00    -0.228    13.027
ATOM     24  O   UNL d   1      -5.594  -3.627 -13.239 -0.04 -0.01    -0.303    13.027
ATOM     25  H   UNL d   1      -6.147  -4.443 -13.339 +0.04 +0.00    +0.222    13.027
ATOM     26  O   UNL d   1      -3.213  -4.171 -12.801 -0.06 -0.01    -0.303    13.027
ATOM     27  H   UNL d   1      -2.520  -4.789 -13.110 +0.06 +0.01    +0.222    13.027
ATOM     28  O   UNL d   1      -3.732 -10.567 -13.119 -0.14 +0.02    -0.278    13.027
ATOM     29  P   UNL d   1      -4.335 -11.999 -13.469 -0.11 -0.03    +0.473    13.027
ATOM     30  O   UNL d   1      -4.961 -12.120 -14.810 -0.04 +0.00    -0.228    13.027
ATOM     31  O   UNL d   1      -3.058 -12.918 -13.178 -0.15 +0.00    -0.303    13.027
ATOM     32  H   UNL d   1      -2.247 -12.367 -13.270 +0.07 -0.02    +0.222    13.027
ATOM     33  O   UNL d   1      -5.268 -12.285 -12.211 -0.22 +0.07    -0.303    13.027
ATOM     34  H   UNL d   1      -5.388 -11.446 -11.702 +0.11 -0.05    +0.222    13.027
ATOM     35  O   UNL d   1      -1.805  -6.476 -14.132 -0.05 -0.01    -0.278    13.027
ATOM     36  P   UNL d   1      -1.239  -6.565 -12.643 -0.17 +0.01    +0.473    13.027
ATOM     37  O   UNL d   1      -2.263  -6.782 -11.575 -0.19 +0.00    -0.228    13.027
ATOM     38  O   UNL d   1      -0.169  -7.738 -12.772 -0.26 -0.01    -0.303    13.027
ATOM     39  H   UNL d   1      -0.524  -8.432 -13.369 +0.09 +0.01    +0.222    13.027
ATOM     40  O   UNL d   1      -0.352  -5.249 -12.537 -0.19 -0.05    -0.303    13.027
ATOM     41  H   UNL d   1      -0.903  -4.436 -12.569 +0.09 +0.04    +0.222    13.027
ATOM     42  O   UNL d   1      -1.931  -9.269 -14.951 -0.04 -0.00    -0.278    13.027
ATOM     43  P   UNL d   1      -0.840 -10.307 -14.424 -0.11 +0.00    +0.473    13.027
ATOM     44  O   UNL d   1       0.593  -9.980 -14.668 -0.61 -0.03    -0.228    13.027
ATOM     45  O   UNL d   1      -1.219 -10.460 -12.886 -0.22 +0.04    -0.303    13.027
ATOM     46  H   UNL d   1      -1.727 -11.280 -12.722 -0.06 -0.06    +0.222    13.027
ATOM     47  O   UNL d   1      -1.343 -11.705 -15.024 -0.04 +0.00    -0.303    13.027
ATOM     48  H   UNL d   1      -2.314 -11.773 -14.914 +0.05 -0.00    +0.222    13.027
TER
ENDMDL
MODEL       29
USER    Run = 29
USER    Cluster Rank = 24
USER    Number of conformations in this cluster = 1
USER  
USER    RMSD from reference structure       = 17.985 A
USER  
USER    Estimated Free Energy of Binding    =   +2.29 kcal/mol  [=(1)+(2)+(3)-(4)]
USER    
USER    (1) Final Intermolecular Energy     =   -4.87 kcal/mol
USER        vdW + Hbond + desolv Energy     =   -4.80 kcal/mol
USER        Electrostatic Energy            =   -0.06 kcal/mol
USER    (2) Final Total Internal Energy     =  -13.03 kcal/mol
USER    (3) Torsional Free Energy           =   +7.16 kcal/mol
USER    (4) Unbound System's Energy  [=(2)] =  -13.03 kcal/mol
USER    
USER    
USER  
USER    DPF = D:/Protein_go_brrr/autodock/final/mut_Y35F/IHP/dock.dpf
USER    NEWDPF move	IHP_ideal_opt.pdbqt
USER    NEWDPF about	0.035000 0.082000 -0.065000
USER    NEWDPF tran0	-2.875613 2.518714 18.675703
USER    NEWDPF axisangle0	-0.675688 -0.727579 0.118636 -143.296282
USER    NEWDPF quaternion0	-0.641323 -0.690575 0.112602 -0.314852
USER    NEWDPF dihe0	104.30 133.62 89.28 79.79 135.09 74.60 -134.62 -101.87 104.64 -3.22 8.42 175.89 153.68 112.42 93.45 45.62 -177.96 152.69 23.14 -9.94 -49.57 13.63 25.65 -20.63 
USER  
USER                              x       y       z    vdW   Elec        q     RMS 
ATOM      1  C   UNL d   1      -4.031   3.779  18.922 -0.09 -0.01    +0.194    17.985
ATOM      2  C   UNL d   1      -4.499   2.371  19.296 -0.14 +0.00    +0.194    17.985
ATOM      3  C   UNL d   1      -4.081   1.338  18.247 -0.20 -0.01    +0.194    17.985
ATOM      4  C   UNL d   1      -2.591   1.383  17.919 -0.18 -0.02    +0.194    17.985
ATOM      5  C   UNL d   1      -2.057   2.785  17.651 +0.11 -0.05    +0.194    17.985
ATOM      6  C   UNL d   1      -2.525   3.830  18.666 -0.08 -0.03    +0.194    17.985
ATOM      7  O   UNL d   1      -4.306   4.647  20.024 -0.05 +0.00    -0.278    17.985
ATOM      8  P   UNL d   1      -5.615   5.560  19.963 -0.03 +0.01    +0.473    17.985
ATOM      9  O   UNL d   1      -5.555   6.804  20.778 -0.01 -0.00    -0.228    17.985
ATOM     10  O   UNL d   1      -5.821   5.838  18.406 -0.12 -0.03    -0.303    17.985
ATOM     11  H   UNL d   1      -4.999   6.203  18.028 +0.05 +0.01    +0.222    17.985
ATOM     12  O   UNL d   1      -6.820   4.576  20.288 -0.05 -0.02    -0.303    17.985
ATOM     13  H   UNL d   1      -7.009   4.503  21.250 +0.02 +0.01    +0.222    17.985
ATOM     14  O   UNL d   1      -3.918   2.005  20.554 -0.02 +0.00    -0.278    17.985
ATOM     15  P   UNL d   1      -4.937   1.630  21.731 +0.01 +0.00    +0.473    17.985
ATOM     16  O   UNL d   1      -4.351   0.984  22.947 +0.00 +0.00    -0.228    17.985
ATOM     17  O   UNL d   1      -5.675   3.004  22.056 -0.00 -0.00    -0.303    17.985
ATOM     18  H   UNL d   1      -5.277   3.744  21.559 +0.02 +0.00    +0.222    17.985
ATOM     19  O   UNL d   1      -6.093   0.810  21.008 -0.02 -0.01    -0.303    17.985
ATOM     20  H   UNL d   1      -5.799   0.453  20.150 +0.04 +0.01    +0.222    17.985
ATOM     21  O   UNL d   1      -2.240   5.108  18.102 -0.18 +0.04    -0.278    17.985
ATOM     22  P   UNL d   1      -1.957   6.351  19.061 -0.09 -0.04    +0.473    17.985
ATOM     23  O   UNL d   1      -0.670   7.088  18.899 -0.15 +0.04    -0.228    17.985
ATOM     24  O   UNL d   1      -3.263   7.234  18.843 -0.08 +0.02    -0.303    17.985
ATOM     25  H   UNL d   1      -4.031   6.754  19.246 +0.05 -0.01    +0.222    17.985
ATOM     26  O   UNL d   1      -2.225   5.714  20.507 -0.01 +0.02    -0.303    17.985
ATOM     27  H   UNL d   1      -3.124   5.963  20.807 +0.03 -0.01    +0.222    17.985
ATOM     28  O   UNL d   1      -4.306   0.049  18.802 -0.09 +0.01    -0.278    17.985
ATOM     29  P   UNL d   1      -5.228  -1.005  18.043 -0.19 +0.01    +0.473    17.985
ATOM     30  O   UNL d   1      -5.434  -0.748  16.594 -0.44 +0.01    -0.228    17.985
ATOM     31  O   UNL d   1      -4.484  -2.365  18.441 -0.12 +0.03    -0.303    17.985
ATOM     32  H   UNL d   1      -3.726  -2.499  17.827 +0.06 -0.05    +0.222    17.985
ATOM     33  O   UNL d   1      -6.529  -1.033  18.960 -0.54 -0.06    -0.303    17.985
ATOM     34  H   UNL d   1      -6.252  -1.047  19.909 +0.05 +0.02    +0.222    17.985
ATOM     35  O   UNL d   1      -0.639   2.688  17.772 -0.12 +0.04    -0.278    17.985
ATOM     36  P   UNL d   1       0.305   3.745  17.039 -0.18 -0.04    +0.473    17.985
ATOM     37  O   UNL d   1       1.464   3.165  16.293 -0.16 +0.03    -0.228    17.985
ATOM     38  O   UNL d   1      -0.735   4.531  16.125 -0.93 -0.01    -0.303    17.985
ATOM     39  H   UNL d   1      -1.593   4.596  16.596 -0.41 -0.05    +0.222    17.985
ATOM     40  O   UNL d   1       0.639   4.770  18.208 -0.06 +0.03    -0.303    17.985
ATOM     41  H   UNL d   1      -0.163   5.008  18.724 +0.04 -0.02    +0.222    17.985
ATOM     42  O   UNL d   1      -2.408   0.627  16.717 -0.17 +0.03    -0.278    17.985
ATOM     43  P   UNL d   1      -1.247  -0.465  16.663 -0.13 -0.09    +0.473    17.985
ATOM     44  O   UNL d   1      -0.802  -0.929  15.318 -0.23 +0.07    -0.228    17.985
ATOM     45  O   UNL d   1      -0.096   0.205  17.533 -0.04 +0.05    -0.303    17.985
ATOM     46  H   UNL d   1       0.239   1.023  17.114 +0.06 -0.04    +0.222    17.985
ATOM     47  O   UNL d   1      -1.776  -1.612  17.650 -0.11 +0.06    -0.303    17.985
ATOM     48  H   UNL d   1      -2.604  -1.312  18.078 +0.07 -0.03    +0.222    17.985
TER
ENDMDL
MODEL       73
USER    Run = 73
USER    Cluster Rank = 25
USER    Number of conformations in this cluster = 1
USER  
USER    RMSD from reference structure       = 14.291 A
USER  
USER    Estimated Free Energy of Binding    =   +2.35 kcal/mol  [=(1)+(2)+(3)-(4)]
USER    
USER    (1) Final Intermolecular Energy     =   -4.81 kcal/mol
USER        vdW + Hbond + desolv Energy     =   -4.56 kcal/mol
USER        Electrostatic Energy            =   -0.26 kcal/mol
USER    (2) Final Total Internal Energy     =  -14.28 kcal/mol
USER    (3) Torsional Free Energy           =   +7.16 kcal/mol
USER    (4) Unbound System's Energy  [=(2)] =  -14.28 kcal/mol
USER    
USER    
USER  
USER    DPF = D:/Protein_go_brrr/autodock/final/mut_Y35F/IHP/dock.dpf
USER    NEWDPF move	IHP_ideal_opt.pdbqt
USER    NEWDPF about	0.035000 0.082000 -0.065000
USER    NEWDPF tran0	14.268220 8.314356 6.259523
USER    NEWDPF axisangle0	-0.282814 -0.058835 -0.957369 148.667901
USER    NEWDPF quaternion0	-0.272308 -0.056649 -0.921804 0.270030
USER    NEWDPF dihe0	-118.56 14.48 168.12 16.25 148.30 136.87 -121.87 64.06 27.42 86.57 110.89 -179.80 -144.80 80.61 -154.61 47.76 -27.35 -153.50 24.20 -39.53 9.14 13.13 -21.97 8.95 
USER  
USER                              x       y       z    vdW   Elec        q     RMS 
ATOM      1  C   UNL d   1      14.220   9.696   7.296 -0.01 +0.04    +0.194    14.291
ATOM      2  C   UNL d   1      15.280   9.733   6.193 -0.06 +0.04    +0.194    14.291
ATOM      3  C   UNL d   1      15.995   8.388   6.048 -0.07 +0.05    +0.194    14.291
ATOM      4  C   UNL d   1      15.035   7.212   5.887 -0.08 +0.05    +0.194    14.291
ATOM      5  C   UNL d   1      13.894   7.198   6.897 -0.04 +0.06    +0.194    14.291
ATOM      6  C   UNL d   1      13.219   8.558   7.086 -0.03 +0.05    +0.194    14.291
ATOM      7  O   UNL d   1      13.486  10.922   7.251 -0.02 -0.04    -0.278    14.291
ATOM      8  P   UNL d   1      13.886  12.084   8.272 -0.01 +0.06    +0.473    14.291
ATOM      9  O   UNL d   1      13.116  12.096   9.546 -0.03 -0.04    -0.228    14.291
ATOM     10  O   UNL d   1      15.454  11.887   8.487 -0.00 -0.03    -0.303    14.291
ATOM     11  H   UNL d   1      15.941  12.326   7.765 +0.01 +0.02    +0.222    14.291
ATOM     12  O   UNL d   1      13.833  13.422   7.417 -0.02 -0.02    -0.303    14.291
ATOM     13  H   UNL d   1      14.056  13.282   6.469 +0.02 +0.01    +0.222    14.291
ATOM     14  O   UNL d   1      14.646  10.050   4.947 -0.42 -0.08    -0.278    14.291
ATOM     15  P   UNL d   1      14.584  11.600   4.549 -0.04 +0.07    +0.473    14.291
ATOM     16  O   UNL d   1      14.916  11.943   3.131 -0.14 -0.02    -0.228    14.291
ATOM     17  O   UNL d   1      13.113  12.048   4.965 -0.05 -0.01    -0.303    14.291
ATOM     18  H   UNL d   1      13.024  12.105   5.936 +0.04 +0.01    +0.222    14.291
ATOM     19  O   UNL d   1      15.465  12.329   5.655 -0.04 -0.03    -0.303    14.291
ATOM     20  H   UNL d   1      15.278  11.986   6.549 +0.02 +0.02    +0.222    14.291
ATOM     21  O   UNL d   1      12.435   8.467   8.274 -0.02 -0.10    -0.278    14.291
ATOM     22  P   UNL d   1      10.897   8.058   8.177 -0.08 +0.24    +0.473    14.291
ATOM     23  O   UNL d   1       9.884   8.976   8.774 -0.17 -0.08    -0.228    14.291
ATOM     24  O   UNL d   1      10.726   7.801   6.616 -0.10 -0.11    -0.303    14.291
ATOM     25  H   UNL d   1      11.046   6.885   6.417 +0.07 +0.11    +0.222    14.291
ATOM     26  O   UNL d   1      10.920   6.564   8.758 -0.27 -0.41    -0.303    14.291
ATOM     27  H   UNL d   1      11.737   6.116   8.460 +0.04 +0.30    +0.222    14.291
ATOM     28  O   UNL d   1      16.746   8.430   4.842 -0.19 -0.12    -0.278    14.291
ATOM     29  P   UNL d   1      18.315   8.158   4.862 -0.13 +0.24    +0.473    14.291
ATOM     30  O   UNL d   1      18.818   7.396   6.034 -0.04 -0.08    -0.228    14.291
ATOM     31  O   UNL d   1      18.500   7.483   3.423 -0.69 -0.34    -0.303    14.291
ATOM     32  H   UNL d   1      18.085   6.590   3.439 +0.07 +0.20    +0.222    14.291
ATOM     33  O   UNL d   1      18.911   9.619   4.645 -0.11 -0.14    -0.303    14.291
ATOM     34  H   UNL d   1      19.514   9.835   5.398 +0.03 +0.08    +0.222    14.291
ATOM     35  O   UNL d   1      12.913   6.314   6.360 -0.12 -0.13    -0.278    14.291
ATOM     36  P   UNL d   1      12.664   4.887   7.028 -0.11 +0.42    +0.473    14.291
ATOM     37  O   UNL d   1      13.201   4.721   8.414 -0.19 -0.24    -0.228    14.291
ATOM     38  O   UNL d   1      11.082   4.747   6.918 -0.50 -0.44    -0.303    14.291
ATOM     39  H   UNL d   1      10.666   5.604   7.156 +0.06 +0.30    +0.222    14.291
ATOM     40  O   UNL d   1      13.214   3.891   5.916 -0.76 -0.19    -0.303    14.291
ATOM     41  H   UNL d   1      14.078   4.190   5.555 +0.10 +0.09    +0.222    14.291
ATOM     42  O   UNL d   1      15.801   6.021   6.101 -0.04 -0.08    -0.278    14.291
ATOM     43  P   UNL d   1      16.262   5.163   4.838 -0.12 +0.15    +0.473    14.291
ATOM     44  O   UNL d   1      15.579   3.859   4.606 -0.23 -0.07    -0.228    14.291
ATOM     45  O   UNL d   1      16.110   6.199   3.639 -0.13 -0.11    -0.303    14.291
ATOM     46  H   UNL d   1      16.374   7.101   3.909 +0.07 +0.08    +0.222    14.291
ATOM     47  O   UNL d   1      17.854   5.090   5.006 -0.10 -0.13    -0.303    14.291
ATOM     48  H   UNL d   1      18.117   5.588   5.808 +0.05 +0.08    +0.222    14.291
TER
ENDMDL
MODEL       31
USER    Run = 31
USER    Cluster Rank = 26
USER    Number of conformations in this cluster = 2
USER  
USER    RMSD from reference structure       = 17.581 A
USER  
USER    Estimated Free Energy of Binding    =   +2.39 kcal/mol  [=(1)+(2)+(3)-(4)]
USER    
USER    (1) Final Intermolecular Energy     =   -4.77 kcal/mol
USER        vdW + Hbond + desolv Energy     =   -4.58 kcal/mol
USER        Electrostatic Energy            =   -0.19 kcal/mol
USER    (2) Final Total Internal Energy     =  -14.05 kcal/mol
USER    (3) Torsional Free Energy           =   +7.16 kcal/mol
USER    (4) Unbound System's Energy  [=(2)] =  -14.05 kcal/mol
USER    
USER    
USER  
USER    DPF = D:/Protein_go_brrr/autodock/final/mut_Y35F/IHP/dock.dpf
USER    NEWDPF move	IHP_ideal_opt.pdbqt
USER    NEWDPF about	0.035000 0.082000 -0.065000
USER    NEWDPF tran0	-10.014547 -17.798370 -2.761615
USER    NEWDPF axisangle0	-0.516032 -0.231020 0.824827 93.640477
USER    NEWDPF quaternion0	-0.376296 -0.168462 0.601473 0.684290
USER    NEWDPF dihe0	160.02 77.81 158.37 125.85 8.26 160.00 -26.17 -179.69 102.46 -73.52 -68.08 136.14 -34.98 95.25 179.55 149.25 -130.96 173.18 -5.47 -29.99 -21.31 -42.61 -5.32 176.08 
USER  
USER                              x       y       z    vdW   Elec        q     RMS 
ATOM      1  C   UNL d   1     -10.759 -19.233  -3.373 -0.03 -0.00    +0.194    17.581
ATOM      2  C   UNL d   1     -11.714 -18.093  -3.015 -0.06 +0.00    +0.194    17.581
ATOM      3  C   UNL d   1     -11.335 -17.431  -1.689 -0.10 -0.00    +0.194    17.581
ATOM      4  C   UNL d   1      -9.873 -16.998  -1.630 -0.16 +0.00    +0.194    17.581
ATOM      5  C   UNL d   1      -8.889 -18.067  -2.088 -0.10 -0.00    +0.194    17.581
ATOM      6  C   UNL d   1      -9.300 -18.772  -3.383 -0.07 -0.01    +0.194    17.581
ATOM      7  O   UNL d   1     -11.073 -19.680  -4.694 -0.02 -0.00    -0.278    17.581
ATOM      8  P   UNL d   1     -11.324 -21.240  -4.927 +0.00 +0.00    +0.473    17.581
ATOM      9  O   UNL d   1     -11.587 -22.028  -3.692 -0.00 +0.00    -0.228    17.581
ATOM     10  O   UNL d   1     -12.531 -21.286  -5.970 -0.00 -0.00    -0.303    17.581
ATOM     11  H   UNL d   1     -12.780 -20.377  -6.222 +0.01 +0.00    +0.222    17.581
ATOM     12  O   UNL d   1     -10.100 -21.728  -5.814 -0.00 -0.00    -0.303    17.581
ATOM     13  H   UNL d   1      -9.267 -21.240  -5.624 +0.03 -0.00    +0.222    17.581
ATOM     14  O   UNL d   1     -11.668 -17.103  -4.049 -0.13 -0.01    -0.278    17.581
ATOM     15  P   UNL d   1     -12.877 -17.108  -5.100 -0.10 +0.06    +0.473    17.581
ATOM     16  O   UNL d   1     -13.235 -15.793  -5.719 -0.74 -0.09    -0.228    17.581
ATOM     17  O   UNL d   1     -12.449 -18.201  -6.177 -0.09 -0.03    -0.303    17.581
ATOM     18  H   UNL d   1     -12.374 -19.085  -5.770 +0.03 +0.01    +0.222    17.581
ATOM     19  O   UNL d   1     -14.059 -17.854  -4.341 -0.03 -0.01    -0.303    17.581
ATOM     20  H   UNL d   1     -14.376 -17.340  -3.575 +0.04 +0.00    +0.222    17.581
ATOM     21  O   UNL d   1      -8.493 -19.942  -3.489 -0.03 +0.00    -0.278    17.581
ATOM     22  P   UNL d   1      -7.596 -20.170  -4.789 -0.09 -0.04    +0.473    17.581
ATOM     23  O   UNL d   1      -7.316 -21.571  -5.215 -0.05 +0.01    -0.228    17.581
ATOM     24  O   UNL d   1      -8.359 -19.284  -5.869 -0.15 +0.02    -0.303    17.581
ATOM     25  H   UNL d   1      -9.293 -19.609  -5.931 +0.06 -0.01    +0.222    17.581
ATOM     26  O   UNL d   1      -6.314 -19.264  -4.463 -0.11 +0.10    -0.303    17.581
ATOM     27  H   UNL d   1      -6.522 -18.670  -3.713 +0.06 -0.05    +0.222    17.581
ATOM     28  O   UNL d   1     -12.089 -16.231  -1.578 -0.13 -0.00    -0.278    17.581
ATOM     29  P   UNL d   1     -13.669 -16.288  -1.384 -0.07 -0.02    +0.473    17.581
ATOM     30  O   UNL d   1     -14.193 -15.593  -0.181 -0.24 +0.02    -0.228    17.581
ATOM     31  O   UNL d   1     -14.146 -15.734  -2.808 -0.09 -0.00    -0.303    17.581
ATOM     32  H   UNL d   1     -13.438 -15.918  -3.469 +0.08 +0.01    +0.222    17.581
ATOM     33  O   UNL d   1     -13.963 -17.849  -1.498 -0.02 +0.01    -0.303    17.581
ATOM     34  H   UNL d   1     -14.587 -18.005  -2.249 +0.03 -0.01    +0.222    17.581
ATOM     35  O   UNL d   1      -7.668 -17.380  -2.354 -0.15 +0.01    -0.278    17.581
ATOM     36  P   UNL d   1      -6.315 -17.842  -1.645 -0.24 +0.06    +0.473    17.581
ATOM     37  O   UNL d   1      -6.058 -17.247  -0.297 -0.35 -0.04    -0.228    17.581
ATOM     38  O   UNL d   1      -6.473 -19.427  -1.642 -0.12 -0.08    -0.303    17.581
ATOM     39  H   UNL d   1      -6.976 -19.701  -2.439 +0.06 +0.02    +0.222    17.581
ATOM     40  O   UNL d   1      -5.229 -17.568  -2.775 -0.52 +0.05    -0.303    17.581
ATOM     41  H   UNL d   1      -4.811 -18.401  -3.087 -0.47 -0.20    +0.222    17.581
ATOM     42  O   UNL d   1      -9.579 -16.716  -0.257 -0.18 -0.01    -0.278    17.581
ATOM     43  P   UNL d   1      -9.625 -17.909   0.802 -0.14 -0.00    +0.473    17.581
ATOM     44  O   UNL d   1     -10.191 -17.611   2.147 -0.31 +0.03    -0.228    17.581
ATOM     45  O   UNL d   1     -10.399 -19.050   0.008 -0.04 +0.00    -0.303    17.581
ATOM     46  H   UNL d   1     -11.014 -19.538   0.592 +0.04 -0.00    +0.222    17.581
ATOM     47  O   UNL d   1      -8.122 -18.467   0.791 -0.00 -0.02    -0.303    17.581
ATOM     48  H   UNL d   1      -7.814 -18.546  -0.136 +0.09 +0.02    +0.222    17.581
TER
ENDMDL
MODEL       79
USER    Run = 79
USER    Cluster Rank = 27
USER    Number of conformations in this cluster = 1
USER  
USER    RMSD from reference structure       = 18.997 A
USER  
USER    Estimated Free Energy of Binding    =   +2.48 kcal/mol  [=(1)+(2)+(3)-(4)]
USER    
USER    (1) Final Intermolecular Energy     =   -4.68 kcal/mol
USER        vdW + Hbond + desolv Energy     =   -4.16 kcal/mol
USER        Electrostatic Energy            =   -0.52 kcal/mol
USER    (2) Final Total Internal Energy     =  -14.27 kcal/mol
USER    (3) Torsional Free Energy           =   +7.16 kcal/mol
USER    (4) Unbound System's Energy  [=(2)] =  -14.27 kcal/mol
USER    
USER    
USER  
USER    DPF = D:/Protein_go_brrr/autodock/final/mut_Y35F/IHP/dock.dpf
USER    NEWDPF move	IHP_ideal_opt.pdbqt
USER    NEWDPF about	0.035000 0.082000 -0.065000
USER    NEWDPF tran0	-12.766581 6.599260 15.981975
USER    NEWDPF axisangle0	-0.622302 0.380720 -0.683954 -111.213334
USER    NEWDPF quaternion0	-0.513511 0.314162 -0.564384 -0.564871
USER    NEWDPF dihe0	78.04 -47.72 147.08 26.10 -180.00 179.92 -77.30 -72.60 -17.24 -33.43 170.09 148.90 162.78 -178.80 81.63 40.52 162.44 179.95 -148.84 -3.97 24.53 -14.85 -170.14 28.34 
USER  
USER                              x       y       z    vdW   Elec        q     RMS 
ATOM      1  C   UNL d   1     -12.100   5.720  17.311 -0.04 +0.03    +0.194    18.997
ATOM      2  C   UNL d   1     -12.904   6.968  17.681 -0.01 +0.03    +0.194    18.997
ATOM      3  C   UNL d   1     -12.579   8.145  16.760 -0.02 +0.05    +0.194    18.997
ATOM      4  C   UNL d   1     -12.698   7.800  15.277 -0.09 +0.10    +0.194    18.997
ATOM      5  C   UNL d   1     -12.006   6.501  14.885 -0.11 +0.11    +0.194    18.997
ATOM      6  C   UNL d   1     -12.282   5.339  15.842 -0.10 +0.06    +0.194    18.997
ATOM      7  O   UNL d   1     -12.583   4.629  18.098 -0.02 -0.02    -0.278    18.997
ATOM      8  P   UNL d   1     -13.798   3.762  17.529 -0.00 +0.05    +0.473    18.997
ATOM      9  O   UNL d   1     -14.742   3.248  18.558 -0.01 -0.01    -0.228    18.997
ATOM     10  O   UNL d   1     -14.494   4.725  16.464 -0.01 -0.06    -0.303    18.997
ATOM     11  H   UNL d   1     -15.065   5.366  16.927 +0.02 +0.04    +0.222    18.997
ATOM     12  O   UNL d   1     -13.124   2.667  16.596 -0.09 -0.02    -0.303    18.997
ATOM     13  H   UNL d   1     -13.069   2.944  15.654 +0.08 +0.03    +0.222    18.997
ATOM     14  O   UNL d   1     -14.302   6.672  17.568 -0.00 -0.04    -0.278    18.997
ATOM     15  P   UNL d   1     -15.210   7.008  18.843 +0.00 +0.04    +0.473    18.997
ATOM     16  O   UNL d   1     -15.999   5.877  19.423 -0.00 -0.01    -0.228    18.997
ATOM     17  O   UNL d   1     -14.191   7.649  19.887 +0.00 -0.02    -0.303    18.997
ATOM     18  H   UNL d   1     -13.675   8.370  19.477 +0.00 +0.02    +0.222    18.997
ATOM     19  O   UNL d   1     -16.058   8.280  18.403 +0.00 -0.03    -0.303    18.997
ATOM     20  H   UNL d   1     -15.551   8.862  17.806 +0.00 +0.03    +0.222    18.997
ATOM     21  O   UNL d   1     -11.321   4.327  15.550 -0.19 -0.05    -0.278    18.997
ATOM     22  P   UNL d   1     -11.519   3.391  14.274 -0.27 +0.17    +0.473    18.997
ATOM     23  O   UNL d   1     -10.564   3.536  13.137 -0.85 -0.18    -0.228    18.997
ATOM     24  O   UNL d   1     -11.555   1.943  14.935 +0.01 -0.02    -0.303    18.997
ATOM     25  H   UNL d   1     -12.463   1.568  14.806 -0.46 -0.03    +0.222    18.997
ATOM     26  O   UNL d   1     -13.066   3.635  13.928 -0.14 -0.15    -0.303    18.997
ATOM     27  H   UNL d   1     -13.419   4.336  14.513 +0.08 +0.10    +0.222    18.997
ATOM     28  O   UNL d   1     -13.555   9.153  16.992 -0.00 -0.06    -0.278    18.997
ATOM     29  P   UNL d   1     -13.254  10.347  18.002 +0.01 +0.06    +0.473    18.997
ATOM     30  O   UNL d   1     -11.830  10.513  18.392 -0.00 -0.02    -0.228    18.997
ATOM     31  O   UNL d   1     -13.937  11.560  17.212 +0.00 -0.04    -0.303    18.997
ATOM     32  H   UNL d   1     -13.947  11.343  16.252 +0.01 +0.04    +0.222    18.997
ATOM     33  O   UNL d   1     -14.293  10.062  19.175 +0.00 -0.02    -0.303    18.997
ATOM     34  H   UNL d   1     -14.954   9.396  18.863 +0.00 +0.02    +0.222    18.997
ATOM     35  O   UNL d   1     -12.550   6.140  13.618 +0.01 -0.27    -0.278    18.997
ATOM     36  P   UNL d   1     -14.104   6.343  13.322 -0.06 +0.45    +0.473    18.997
ATOM     37  O   UNL d   1     -14.692   5.422  12.301 -0.13 -0.23    -0.228    18.997
ATOM     38  O   UNL d   1     -14.735   6.197  14.776 -0.02 -0.13    -0.303    18.997
ATOM     39  H   UNL d   1     -14.917   5.249  14.954 +0.04 +0.08    +0.222    18.997
ATOM     40  O   UNL d   1     -14.191   7.903  13.021 -0.67 -0.49    -0.303    18.997
ATOM     41  H   UNL d   1     -14.122   8.436  13.844 +0.03 +0.23    +0.222    18.997
ATOM     42  O   UNL d   1     -12.055   8.854  14.553 -0.16 -0.22    -0.278    18.997
ATOM     43  P   UNL d   1     -12.872  10.191  14.250 -0.11 +0.38    +0.473    18.997
ATOM     44  O   UNL d   1     -12.796  10.744  12.869 -0.86 -0.36    -0.228    18.997
ATOM     45  O   UNL d   1     -14.345   9.814  14.720 -0.03 -0.16    -0.303    18.997
ATOM     46  H   UNL d   1     -14.523  10.134  15.627 +0.02 +0.07    +0.222    18.997
ATOM     47  O   UNL d   1     -12.400  11.181  15.419 -0.06 -0.10    -0.303    18.997
ATOM     48  H   UNL d   1     -12.207  10.659  16.226 +0.03 +0.06    +0.222    18.997
TER
ENDMDL
MODEL        5
USER    Run = 5
USER    Cluster Rank = 28
USER    Number of conformations in this cluster = 1
USER  
USER    RMSD from reference structure       = 14.824 A
USER  
USER    Estimated Free Energy of Binding    =   +2.68 kcal/mol  [=(1)+(2)+(3)-(4)]
USER    
USER    (1) Final Intermolecular Energy     =   -4.48 kcal/mol
USER        vdW + Hbond + desolv Energy     =   -3.95 kcal/mol
USER        Electrostatic Energy            =   -0.52 kcal/mol
USER    (2) Final Total Internal Energy     =  -13.47 kcal/mol
USER    (3) Torsional Free Energy           =   +7.16 kcal/mol
USER    (4) Unbound System's Energy  [=(2)] =  -13.47 kcal/mol
USER    
USER    
USER  
USER    DPF = D:/Protein_go_brrr/autodock/final/mut_Y35F/IHP/dock.dpf
USER    NEWDPF move	IHP_ideal_opt.pdbqt
USER    NEWDPF about	0.035000 0.082000 -0.065000
USER    NEWDPF tran0	17.625609 -7.032245 0.505329
USER    NEWDPF axisangle0	-0.813870 -0.293552 0.501441 -130.344012
USER    NEWDPF quaternion0	-0.738646 -0.266419 0.455094 -0.419896
USER    NEWDPF dihe0	-143.36 19.04 33.48 -39.99 119.27 72.67 -64.78 27.64 95.88 -42.11 -180.00 -69.18 29.40 -179.95 177.75 -173.55 39.17 -9.38 -131.51 -33.65 22.34 -28.13 -172.63 120.70 
USER  
USER                              x       y       z    vdW   Elec        q     RMS 
ATOM      1  C   UNL d   1      17.463  -5.313   0.525 -0.19 +0.04    +0.194    14.824
ATOM      2  C   UNL d   1      17.230  -6.014   1.865 -0.09 +0.02    +0.194    14.824
ATOM      3  C   UNL d   1      16.386  -7.280   1.702 -0.07 +0.01    +0.194    14.824
ATOM      4  C   UNL d   1      16.928  -8.232   0.639 -0.03 +0.02    +0.194    14.824
ATOM      5  C   UNL d   1      17.282  -7.554  -0.678 -0.07 +0.05    +0.194    14.824
ATOM      6  C   UNL d   1      18.073  -6.255  -0.513 -0.12 +0.06    +0.194    14.824
ATOM      7  O   UNL d   1      18.394  -4.248   0.734 -0.19 -0.06    -0.278    14.824
ATOM      8  P   UNL d   1      19.890  -4.434   0.207 -0.00 +0.11    +0.473    14.824
ATOM      9  O   UNL d   1      20.086  -4.165  -1.243 -0.16 -0.07    -0.228    14.824
ATOM     10  O   UNL d   1      20.753  -3.475   1.146 -0.07 -0.06    -0.303    14.824
ATOM     11  H   UNL d   1      20.640  -3.740   2.077 +0.04 +0.03    +0.222    14.824
ATOM     12  O   UNL d   1      20.330  -5.875   0.711 -0.02 -0.04    -0.303    14.824
ATOM     13  H   UNL d   1      19.848  -6.165   1.518 +0.03 +0.03    +0.222    14.824
ATOM     14  O   UNL d   1      18.497  -6.379   2.427 -0.01 -0.03    -0.278    14.824
ATOM     15  P   UNL d   1      19.103  -5.388   3.530 -0.00 +0.05    +0.473    14.824
ATOM     16  O   UNL d   1      20.477  -4.854   3.271 -0.02 -0.02    -0.228    14.824
ATOM     17  O   UNL d   1      18.008  -4.239   3.661 -0.06 -0.04    -0.303    14.824
ATOM     18  H   UNL d   1      17.899  -3.759   2.818 +0.07 +0.03    +0.222    14.824
ATOM     19  O   UNL d   1      18.916  -6.166   4.905 -0.00 -0.03    -0.303    14.824
ATOM     20  H   UNL d   1      18.135  -5.849   5.395 +0.03 +0.03    +0.222    14.824
ATOM     21  O   UNL d   1      18.026  -5.581  -1.769 -0.12 -0.19    -0.278    14.824
ATOM     22  P   UNL d   1      19.005  -6.029  -2.946 -0.04 +0.45    +0.473    14.824
ATOM     23  O   UNL d   1      19.408  -5.007  -3.955 -0.72 -0.28    -0.228    14.824
ATOM     24  O   UNL d   1      20.211  -6.679  -2.136 -0.03 -0.10    -0.303    14.824
ATOM     25  H   UNL d   1      19.838  -7.362  -1.522 +0.03 +0.06    +0.222    14.824
ATOM     26  O   UNL d   1      18.255  -7.324  -3.518 -0.34 -0.38    -0.303    14.824
ATOM     27  H   UNL d   1      18.695  -8.129  -3.177 +0.02 +0.13    +0.222    14.824
ATOM     28  O   UNL d   1      16.457  -8.001   2.926 -0.04 -0.01    -0.278    14.824
ATOM     29  P   UNL d   1      15.509  -7.611   4.145 -0.10 +0.10    +0.473    14.824
ATOM     30  O   UNL d   1      15.330  -8.663   5.179 -0.30 -0.11    -0.228    14.824
ATOM     31  O   UNL d   1      16.202  -6.246   4.611 -0.09 -0.08    -0.303    14.824
ATOM     32  H   UNL d   1      17.082  -6.175   4.175 +0.05 +0.04    +0.222    14.824
ATOM     33  O   UNL d   1      14.197  -7.104   3.400 -0.23 +0.01    -0.303    14.824
ATOM     34  H   UNL d   1      13.613  -7.879   3.214 -0.17 -0.18    +0.222    14.824
ATOM     35  O   UNL d   1      18.123  -8.472  -1.373 -0.02 -0.07    -0.278    14.824
ATOM     36  P   UNL d   1      19.262  -9.269  -0.591 +0.01 +0.05    +0.473    14.824
ATOM     37  O   UNL d   1      18.814 -10.511   0.112 +0.00 -0.01    -0.228    14.824
ATOM     38  O   UNL d   1      20.335  -9.518  -1.742 +0.00 -0.03    -0.303    14.824
ATOM     39  H   UNL d   1      20.240  -8.821  -2.425 +0.01 +0.04    +0.222    14.824
ATOM     40  O   UNL d   1      19.920  -8.131   0.305 -0.00 -0.03    -0.303    14.824
ATOM     41  H   UNL d   1      20.594  -7.618  -0.195 +0.02 +0.03    +0.222    14.824
ATOM     42  O   UNL d   1      15.889  -9.176   0.360 -0.03 +0.00    -0.278    14.824
ATOM     43  P   UNL d   1      14.434  -8.924   0.964 -0.05 -0.07    +0.473    14.824
ATOM     44  O   UNL d   1      13.958  -7.514   1.042 -0.25 +0.02    -0.228    14.824
ATOM     45  O   UNL d   1      13.517  -9.872   0.075 -0.18 +0.05    -0.303    14.824
ATOM     46  H   UNL d   1      13.220 -10.657   0.577 +0.08 -0.05    +0.222    14.824
ATOM     47  O   UNL d   1      14.472  -9.719   2.356 -0.07 +0.17    -0.303    14.824
ATOM     48  H   UNL d   1      14.476  -9.076   3.095 -0.45 -0.19    +0.222    14.824
TER
ENDMDL
MODEL       34
USER    Run = 34
USER    Cluster Rank = 29
USER    Number of conformations in this cluster = 1
USER  
USER    RMSD from reference structure       = 19.045 A
USER  
USER    Estimated Free Energy of Binding    =   +2.71 kcal/mol  [=(1)+(2)+(3)-(4)]
USER    
USER    (1) Final Intermolecular Energy     =   -4.45 kcal/mol
USER        vdW + Hbond + desolv Energy     =   -4.18 kcal/mol
USER        Electrostatic Energy            =   -0.26 kcal/mol
USER    (2) Final Total Internal Energy     =  -13.08 kcal/mol
USER    (3) Torsional Free Energy           =   +7.16 kcal/mol
USER    (4) Unbound System's Energy  [=(2)] =  -13.08 kcal/mol
USER    
USER    
USER  
USER    DPF = D:/Protein_go_brrr/autodock/final/mut_Y35F/IHP/dock.dpf
USER    NEWDPF move	IHP_ideal_opt.pdbqt
USER    NEWDPF about	0.035000 0.082000 -0.065000
USER    NEWDPF tran0	-12.399627 -2.142900 17.224374
USER    NEWDPF axisangle0	-0.109807 0.331002 -0.937219 64.842521
USER    NEWDPF quaternion0	-0.058872 0.177464 -0.502481 0.844129
USER    NEWDPF dihe0	103.42 109.50 27.07 132.80 73.33 91.57 -108.83 -58.76 94.56 -36.98 63.51 -127.65 -67.71 -75.38 64.21 -21.81 -180.00 -90.64 66.48 12.71 178.47 10.65 16.12 179.51 
USER  
USER                              x       y       z    vdW   Elec        q     RMS 
ATOM      1  C   UNL d   1     -11.277  -1.759  18.480 -0.12 +0.01    +0.194    19.045
ATOM      2  C   UNL d   1     -11.028  -3.082  17.752 -0.14 -0.00    +0.194    19.045
ATOM      3  C   UNL d   1     -12.328  -3.856  17.525 -0.10 -0.03    +0.194    19.045
ATOM      4  C   UNL d   1     -13.415  -3.022  16.851 -0.02 -0.03    +0.194    19.045
ATOM      5  C   UNL d   1     -13.617  -1.647  17.474 -0.12 -0.01    +0.194    19.045
ATOM      6  C   UNL d   1     -12.314  -0.898  17.758 -0.16 +0.00    +0.194    19.045
ATOM      7  O   UNL d   1     -10.051  -1.024  18.499 -0.12 -0.04    -0.278    19.045
ATOM      8  P   UNL d   1      -8.759  -1.718  19.132 -0.00 +0.07    +0.473    19.045
ATOM      9  O   UNL d   1      -9.034  -2.914  19.975 -0.03 -0.01    -0.228    19.045
ATOM     10  O   UNL d   1      -7.834  -2.037  17.872 -0.58 -0.07    -0.303    19.045
ATOM     11  H   UNL d   1      -8.338  -2.559  17.221 +0.09 +0.04    +0.222    19.045
ATOM     12  O   UNL d   1      -7.962  -0.540  19.840 -0.23 -0.05    -0.303    19.045
ATOM     13  H   UNL d   1      -8.456  -0.135  20.588 +0.03 +0.02    +0.222    19.045
ATOM     14  O   UNL d   1     -10.430  -2.809  16.479 -0.25 -0.02    -0.278    19.045
ATOM     15  P   UNL d   1      -9.340  -3.861  15.960 -0.29 +0.01    +0.473    19.045
ATOM     16  O   UNL d   1      -8.712  -4.743  16.994 -0.17 +0.01    -0.228    19.045
ATOM     17  O   UNL d   1     -10.101  -4.682  14.827 -0.47 +0.07    -0.303    19.045
ATOM     18  H   UNL d   1     -10.804  -5.241  15.210 -0.25 -0.17    +0.222    19.045
ATOM     19  O   UNL d   1      -8.327  -2.989  15.097 -0.30 -0.07    -0.303    19.045
ATOM     20  H   UNL d   1      -7.762  -2.429  15.661 +0.11 +0.05    +0.222    19.045
ATOM     21  O   UNL d   1     -12.640   0.182  18.630 -0.06 -0.01    -0.278    19.045
ATOM     22  P   UNL d   1     -12.918  -0.104  20.175 +0.00 +0.00    +0.473    19.045
ATOM     23  O   UNL d   1     -11.784   0.041  21.134 -0.01 -0.00    -0.228    19.045
ATOM     24  O   UNL d   1     -14.162   0.845  20.464 -0.00 -0.00    -0.303    19.045
ATOM     25  H   UNL d   1     -14.463   1.229  19.601 +0.02 +0.00    +0.222    19.045
ATOM     26  O   UNL d   1     -13.610  -1.549  20.119 -0.00 +0.00    -0.303    19.045
ATOM     27  H   UNL d   1     -14.561  -1.443  19.914 +0.02 -0.00    +0.222    19.045
ATOM     28  O   UNL d   1     -12.044  -4.912  16.615 -0.11 +0.12    -0.278    19.045
ATOM     29  P   UNL d   1     -12.302  -6.426  17.035 -0.03 -0.18    +0.473    19.045
ATOM     30  O   UNL d   1     -11.775  -6.821  18.367 -0.01 +0.03    -0.228    19.045
ATOM     31  O   UNL d   1     -13.887  -6.508  16.828 -0.06 +0.12    -0.303    19.045
ATOM     32  H   UNL d   1     -14.312  -5.815  17.385 +0.02 -0.06    +0.222    19.045
ATOM     33  O   UNL d   1     -11.742  -7.222  15.775 -0.03 +0.20    -0.303    19.045
ATOM     34  H   UNL d   1     -11.399  -6.574  15.112 -0.51 -0.31    +0.222    19.045
ATOM     35  O   UNL d   1     -14.336  -0.885  16.506 -0.14 +0.02    -0.278    19.045
ATOM     36  P   UNL d   1     -15.390   0.218  16.971 -0.05 +0.00    +0.473    19.045
ATOM     37  O   UNL d   1     -16.691   0.220  16.232 -0.06 -0.01    -0.228    19.045
ATOM     38  O   UNL d   1     -15.522  -0.093  18.527 -0.01 +0.00    -0.303    19.045
ATOM     39  H   UNL d   1     -14.706  -0.542  18.835 +0.03 -0.00    +0.222    19.045
ATOM     40  O   UNL d   1     -14.529   1.554  16.919 -0.05 -0.01    -0.303    19.045
ATOM     41  H   UNL d   1     -13.943   1.641  17.704 +0.04 +0.01    +0.222    19.045
ATOM     42  O   UNL d   1     -14.644  -3.739  17.006 -0.08 +0.06    -0.278    19.045
ATOM     43  P   UNL d   1     -15.277  -3.879  18.463 -0.00 -0.05    +0.473    19.045
ATOM     44  O   UNL d   1     -14.359  -4.238  19.580 -0.01 +0.02    -0.228    19.045
ATOM     45  O   UNL d   1     -16.021  -2.485  18.656 -0.01 +0.02    -0.303    19.045
ATOM     46  H   UNL d   1     -15.792  -1.856  17.943 +0.03 -0.01    +0.222    19.045
ATOM     47  O   UNL d   1     -16.510  -4.877  18.233 -0.00 +0.03    -0.303    19.045
ATOM     48  H   UNL d   1     -16.196  -5.674  17.758 +0.01 -0.03    +0.222    19.045
TER
ENDMDL
MODEL       35
USER    Run = 35
USER    Cluster Rank = 30
USER    Number of conformations in this cluster = 2
USER  
USER    RMSD from reference structure       = 12.494 A
USER  
USER    Estimated Free Energy of Binding    =   +2.73 kcal/mol  [=(1)+(2)+(3)-(4)]
USER    
USER    (1) Final Intermolecular Energy     =   -4.43 kcal/mol
USER        vdW + Hbond + desolv Energy     =   -4.34 kcal/mol
USER        Electrostatic Energy            =   -0.09 kcal/mol
USER    (2) Final Total Internal Energy     =  -13.67 kcal/mol
USER    (3) Torsional Free Energy           =   +7.16 kcal/mol
USER    (4) Unbound System's Energy  [=(2)] =  -13.67 kcal/mol
USER    
USER    
USER  
USER    DPF = D:/Protein_go_brrr/autodock/final/mut_Y35F/IHP/dock.dpf
USER    NEWDPF move	IHP_ideal_opt.pdbqt
USER    NEWDPF about	0.035000 0.082000 -0.065000
USER    NEWDPF tran0	6.865703 -12.535650 7.243196
USER    NEWDPF axisangle0	0.053344 0.397971 -0.915846 -134.978550
USER    NEWDPF quaternion0	0.049279 0.367649 -0.846066 -0.382856
USER    NEWDPF dihe0	-150.67 -11.01 104.80 132.03 18.15 -97.88 -51.91 1.58 119.25 124.10 5.17 151.69 77.10 103.55 -66.26 179.15 96.52 -175.09 -13.83 -2.26 -12.92 13.40 166.89 -7.82 
USER  
USER                              x       y       z    vdW   Elec        q     RMS 
ATOM      1  C   UNL d   1       5.535 -13.436   7.878 -0.02 -0.02    +0.194    12.494
ATOM      2  C   UNL d   1       5.788 -12.079   8.536 -0.03 -0.02    +0.194    12.494
ATOM      3  C   UNL d   1       7.279 -11.838   8.784 -0.01 -0.02    +0.194    12.494
ATOM      4  C   UNL d   1       8.137 -12.044   7.538 -0.04 -0.02    +0.194    12.494
ATOM      5  C   UNL d   1       7.837 -13.334   6.785 -0.03 -0.03    +0.194    12.494
ATOM      6  C   UNL d   1       6.344 -13.606   6.591 -0.06 -0.03    +0.194    12.494
ATOM      7  O   UNL d   1       4.152 -13.510   7.526 -0.04 +0.04    -0.278    12.494
ATOM      8  P   UNL d   1       3.363 -14.866   7.828 -0.03 -0.07    +0.473    12.494
ATOM      9  O   UNL d   1       2.087 -14.699   8.576 -0.04 +0.02    -0.228    12.494
ATOM     10  O   UNL d   1       3.167 -15.528   6.390 -0.12 +0.08    -0.303    12.494
ATOM     11  H   UNL d   1       4.025 -15.570   5.930 +0.04 -0.06    +0.222    12.494
ATOM     12  O   UNL d   1       4.436 -15.829   8.495 -0.01 +0.03    -0.303    12.494
ATOM     13  H   UNL d   1       5.234 -15.963   7.934 +0.02 -0.02    +0.222    12.494
ATOM     14  O   UNL d   1       5.296 -11.044   7.676 -0.08 +0.03    -0.278    12.494
ATOM     15  P   UNL d   1       4.327  -9.958   8.344 -0.09 -0.03    +0.473    12.494
ATOM     16  O   UNL d   1       4.197  -8.646   7.635 -0.78 -0.05    -0.228    12.494
ATOM     17  O   UNL d   1       2.936 -10.719   8.495 -0.11 +0.03    -0.303    12.494
ATOM     18  H   UNL d   1       3.032 -11.669   8.292 +0.07 -0.03    +0.222    12.494
ATOM     19  O   UNL d   1       4.811  -9.874   9.858 -0.03 +0.04    -0.303    12.494
ATOM     20  H   UNL d   1       5.669  -9.418   9.937 +0.05 -0.03    +0.222    12.494
ATOM     21  O   UNL d   1       6.220 -14.970   6.196 -0.03 +0.04    -0.278    12.494
ATOM     22  P   UNL d   1       5.659 -15.328   4.747 -0.11 -0.12    +0.473    12.494
ATOM     23  O   UNL d   1       4.582 -14.468   4.176 -0.18 +0.11    -0.228    12.494
ATOM     24  O   UNL d   1       6.995 -15.384   3.884 -0.10 +0.05    -0.303    12.494
ATOM     25  H   UNL d   1       7.528 -14.573   4.088 +0.07 -0.04    +0.222    12.494
ATOM     26  O   UNL d   1       5.304 -16.883   4.909 -0.06 +0.06    -0.303    12.494
ATOM     27  H   UNL d   1       4.390 -16.971   5.248 +0.01 -0.06    +0.222    12.494
ATOM     28  O   UNL d   1       7.440 -10.468   9.130 -0.02 +0.02    -0.278    12.494
ATOM     29  P   UNL d   1       8.149 -10.062  10.497 +0.01 -0.02    +0.473    12.494
ATOM     30  O   UNL d   1       8.815  -8.734  10.503 -0.02 +0.00    -0.228    12.494
ATOM     31  O   UNL d   1       6.932 -10.269  11.515 -0.00 +0.03    -0.303    12.494
ATOM     32  H   UNL d   1       6.144 -10.568  11.005 +0.01 -0.02    +0.222    12.494
ATOM     33  O   UNL d   1       9.068 -11.330  10.786 +0.00 +0.01    -0.303    12.494
ATOM     34  H   UNL d   1       9.710 -11.437  10.042 +0.02 +0.00    +0.222    12.494
ATOM     35  O   UNL d   1       8.405 -13.166   5.487 -0.08 +0.05    -0.278    12.494
ATOM     36  P   UNL d   1       7.874 -12.014   4.520 -0.18 -0.08    +0.473    12.494
ATOM     37  O   UNL d   1       8.923 -11.310   3.719 -0.97 +0.10    -0.228    12.494
ATOM     38  O   UNL d   1       6.795 -12.793   3.646 -0.57 +0.03    -0.303    12.494
ATOM     39  H   UNL d   1       6.201 -13.296   4.243 -0.14 -0.07    +0.222    12.494
ATOM     40  O   UNL d   1       6.998 -11.122   5.503 -0.28 +0.04    -0.303    12.494
ATOM     41  H   UNL d   1       7.552 -10.491   6.015 +0.09 -0.05    +0.222    12.494
ATOM     42  O   UNL d   1       9.497 -12.120   7.978 -0.02 +0.02    -0.278    12.494
ATOM     43  P   UNL d   1      10.540 -11.035   7.451 -0.09 -0.03    +0.473    12.494
ATOM     44  O   UNL d   1      11.820 -11.536   6.876 -0.15 +0.01    -0.228    12.494
ATOM     45  O   UNL d   1       9.665 -10.173   6.439 -0.13 +0.19    -0.303    12.494
ATOM     46  H   UNL d   1       9.416 -10.693   5.649 +0.00 -0.17    +0.222    12.494
ATOM     47  O   UNL d   1      10.684 -10.032   8.693 -0.14 -0.08    -0.303    12.494
ATOM     48  H   UNL d   1       9.847 -10.025   9.201 +0.04 +0.02    +0.222    12.494
TER
ENDMDL
MODEL        6
USER    Run = 6
USER    Cluster Rank = 31
USER    Number of conformations in this cluster = 1
USER  
USER    RMSD from reference structure       = 17.245 A
USER  
USER    Estimated Free Energy of Binding    =   +2.74 kcal/mol  [=(1)+(2)+(3)-(4)]
USER    
USER    (1) Final Intermolecular Energy     =   -4.42 kcal/mol
USER        vdW + Hbond + desolv Energy     =   -4.27 kcal/mol
USER        Electrostatic Energy            =   -0.14 kcal/mol
USER    (2) Final Total Internal Energy     =  -14.37 kcal/mol
USER    (3) Torsional Free Energy           =   +7.16 kcal/mol
USER    (4) Unbound System's Energy  [=(2)] =  -14.37 kcal/mol
USER    
USER    
USER  
USER    DPF = D:/Protein_go_brrr/autodock/final/mut_Y35F/IHP/dock.dpf
USER    NEWDPF move	IHP_ideal_opt.pdbqt
USER    NEWDPF about	0.035000 0.082000 -0.065000
USER    NEWDPF tran0	-6.582519 -13.923859 -14.579540
USER    NEWDPF axisangle0	0.732546 0.673839 0.096528 124.292933
USER    NEWDPF quaternion0	0.647677 0.595771 0.085345 0.467213
USER    NEWDPF dihe0	180.00 22.86 92.39 -39.16 148.86 103.29 19.57 -144.52 116.35 -45.25 18.18 158.14 38.45 81.93 84.90 151.26 99.68 167.65 6.79 -47.38 -40.26 -53.01 154.07 -12.36 
USER  
USER                              x       y       z    vdW   Elec        q     RMS 
ATOM      1  C   UNL d   1      -7.346 -12.628 -13.730 -0.10 -0.01    +0.194    17.245
ATOM      2  C   UNL d   1      -8.210 -13.870 -13.956 -0.10 +0.01    +0.194    17.245
ATOM      3  C   UNL d   1      -8.049 -14.422 -15.374 -0.04 +0.02    +0.194    17.245
ATOM      4  C   UNL d   1      -6.592 -14.653 -15.768 -0.06 +0.03    +0.194    17.245
ATOM      5  C   UNL d   1      -5.672 -13.481 -15.454 -0.05 +0.01    +0.194    17.245
ATOM      6  C   UNL d   1      -5.876 -12.889 -14.058 -0.11 -0.00    +0.194    17.245
ATOM      7  O   UNL d   1      -7.419 -12.279 -12.346 -0.18 +0.05    -0.278    17.245
ATOM      8  P   UNL d   1      -8.084 -10.882 -11.949 -0.18 -0.10    +0.473    17.245
ATOM      9  O   UNL d   1      -9.551 -10.929 -11.703 -0.29 +0.02    -0.228    17.245
ATOM     10  O   UNL d   1      -7.249 -10.404 -10.677 -0.09 +0.14    -0.303    17.245
ATOM     11  H   UNL d   1      -6.379 -10.844 -10.672 -0.30 -0.10    +0.222    17.245
ATOM     12  O   UNL d   1      -7.601  -9.862 -13.067 -0.06 +0.03    -0.303    17.245
ATOM     13  H   UNL d   1      -6.778 -10.150 -13.522 +0.06 -0.02    +0.222    17.245
ATOM     14  O   UNL d   1      -7.820 -14.886 -13.023 -0.18 -0.02    -0.278    17.245
ATOM     15  P   UNL d   1      -8.479 -14.810 -11.566 -0.32 -0.01    +0.473    17.245
ATOM     16  O   UNL d   1      -8.936 -16.104 -10.967 -0.21 +0.02    -0.228    17.245
ATOM     17  O   UNL d   1      -7.377 -14.076 -10.680 -0.39 +0.10    -0.303    17.245
ATOM     18  H   UNL d   1      -6.569 -13.900 -11.198 -0.29 -0.09    +0.222    17.245
ATOM     19  O   UNL d   1      -9.592 -13.681 -11.692 -0.24 -0.02    -0.303    17.245
ATOM     20  H   UNL d   1      -9.278 -12.825 -11.346 +0.06 -0.01    +0.222    17.245
ATOM     21  O   UNL d   1      -5.214 -11.626 -14.045 -0.05 +0.01    -0.278    17.245
ATOM     22  P   UNL d   1      -4.447 -11.148 -12.730 -0.15 -0.05    +0.473    17.245
ATOM     23  O   UNL d   1      -2.966 -10.983 -12.799 -0.24 +0.03    -0.228    17.245
ATOM     24  O   UNL d   1      -5.249  -9.827 -12.348 -0.13 +0.03    -0.303    17.245
ATOM     25  H   UNL d   1      -6.059 -10.094 -11.843 +0.11 -0.04    +0.222    17.245
ATOM     26  O   UNL d   1      -4.988 -12.191 -11.640 -0.26 +0.09    -0.303    17.245
ATOM     27  H   UNL d   1      -5.927 -11.995 -11.445 +0.05 -0.08    +0.222    17.245
ATOM     28  O   UNL d   1      -8.656 -15.708 -15.404 -0.03 -0.04    -0.278    17.245
ATOM     29  P   UNL d   1     -10.191 -15.882 -15.014 -0.00 +0.05    +0.473    17.245
ATOM     30  O   UNL d   1     -11.038 -16.555 -16.032 -0.01 -0.02    -0.228    17.245
ATOM     31  O   UNL d   1     -10.038 -16.612 -13.598 -0.04 -0.04    -0.303    17.245
ATOM     32  H   UNL d   1      -9.695 -15.960 -12.944 +0.07 +0.02    +0.222    17.245
ATOM     33  O   UNL d   1     -10.601 -14.399 -14.603 -0.03 -0.02    -0.303    17.245
ATOM     34  H   UNL d   1     -10.370 -14.254 -13.652 +0.06 +0.02    +0.222    17.245
ATOM     35  O   UNL d   1      -4.347 -14.007 -15.498 -0.04 -0.03    -0.278    17.245
ATOM     36  P   UNL d   1      -3.799 -14.908 -14.301 -0.13 +0.08    +0.473    17.245
ATOM     37  O   UNL d   1      -2.891 -16.028 -14.701 -0.18 -0.06    -0.228    17.245
ATOM     38  O   UNL d   1      -3.121 -13.820 -13.357 -0.06 -0.03    -0.303    17.245
ATOM     39  H   UNL d   1      -3.732 -13.060 -13.253 +0.09 -0.00    +0.222    17.245
ATOM     40  O   UNL d   1      -5.135 -15.302 -13.534 -0.19 -0.05    -0.303    17.245
ATOM     41  H   UNL d   1      -5.386 -14.623 -12.868 +0.06 -0.00    +0.222    17.245
ATOM     42  O   UNL d   1      -6.571 -14.838 -17.187 -0.01 -0.04    -0.278    17.245
ATOM     43  P   UNL d   1      -5.937 -16.175 -17.781 -0.02 +0.12    +0.473    17.245
ATOM     44  O   UNL d   1      -5.236 -16.080 -19.092 -0.01 -0.04    -0.228    17.245
ATOM     45  O   UNL d   1      -5.017 -16.686 -16.587 -0.09 -0.13    -0.303    17.245
ATOM     46  H   UNL d   1      -4.384 -15.997 -16.303 +0.03 +0.07    +0.222    17.245
ATOM     47  O   UNL d   1      -7.155 -17.216 -17.722 -0.03 -0.10    -0.303    17.245
ATOM     48  H   UNL d   1      -7.799 -16.920 -17.046 +0.02 +0.06    +0.222    17.245
TER
ENDMDL
MODEL       32
USER    Run = 32
USER    Cluster Rank = 32
USER    Number of conformations in this cluster = 1
USER  
USER    RMSD from reference structure       = 16.279 A
USER  
USER    Estimated Free Energy of Binding    =   +2.78 kcal/mol  [=(1)+(2)+(3)-(4)]
USER    
USER    (1) Final Intermolecular Energy     =   -4.38 kcal/mol
USER        vdW + Hbond + desolv Energy     =   -4.40 kcal/mol
USER        Electrostatic Energy            =   +0.02 kcal/mol
USER    (2) Final Total Internal Energy     =  -13.53 kcal/mol
USER    (3) Torsional Free Energy           =   +7.16 kcal/mol
USER    (4) Unbound System's Energy  [=(2)] =  -13.53 kcal/mol
USER    
USER    
USER  
USER    DPF = D:/Protein_go_brrr/autodock/final/mut_Y35F/IHP/dock.dpf
USER    NEWDPF move	IHP_ideal_opt.pdbqt
USER    NEWDPF about	0.035000 0.082000 -0.065000
USER    NEWDPF tran0	-8.302266 -11.816375 13.134220
USER    NEWDPF axisangle0	0.866144 0.438130 -0.240493 155.037709
USER    NEWDPF quaternion0	0.845674 0.427776 -0.234810 0.216118
USER    NEWDPF dihe0	-164.90 -6.18 146.13 20.16 160.04 103.16 -117.88 14.18 157.20 -44.67 37.17 -97.95 -129.14 -139.72 46.38 56.38 173.01 -94.47 48.99 -3.43 -179.88 157.19 30.02 174.47 
USER  
USER                              x       y       z    vdW   Elec        q     RMS 
ATOM      1  C   UNL d   1      -8.659 -10.172  12.741 -0.13 +0.11    +0.194    16.279
ATOM      2  C   UNL d   1      -9.598 -10.828  13.756 -0.07 +0.12    +0.194    16.279
ATOM      3  C   UNL d   1      -9.975 -12.252  13.340 -0.07 +0.09    +0.194    16.279
ATOM      4  C   UNL d   1      -8.765 -13.127  13.024 -0.04 +0.03    +0.194    16.279
ATOM      5  C   UNL d   1      -7.744 -12.467  12.106 -0.08 +0.03    +0.194    16.279
ATOM      6  C   UNL d   1      -7.413 -11.022  12.485 -0.14 +0.03    +0.194    16.279
ATOM      7  O   UNL d   1      -8.220  -8.924  13.282 -0.21 -0.04    -0.278    16.279
ATOM      8  P   UNL d   1      -9.255  -7.708  13.323 -0.20 +0.14    +0.473    16.279
ATOM      9  O   UNL d   1      -9.470  -7.019  12.022 -0.70 -0.10    -0.228    16.279
ATOM     10  O   UNL d   1     -10.586  -8.354  13.920 -0.54 -0.24    -0.303    16.279
ATOM     11  H   UNL d   1     -10.354  -9.007  14.606 +0.05 +0.11    +0.222    16.279
ATOM     12  O   UNL d   1      -8.765  -6.789  14.523 -0.22 +0.07    -0.303    16.279
ATOM     13  H   UNL d   1      -8.629  -7.287  15.360 +0.01 -0.04    +0.222    16.279
ATOM     14  O   UNL d   1      -8.944 -10.882  15.030 -0.02 -0.05    -0.278    16.279
ATOM     15  P   UNL d   1      -9.756 -10.289  16.276 +0.01 +0.04    +0.473    16.279
ATOM     16  O   UNL d   1      -9.665  -8.811  16.495 -0.03 +0.00    -0.228    16.279
ATOM     17  O   UNL d   1     -11.250 -10.787  16.038 -0.00 -0.05    -0.303    16.279
ATOM     18  H   UNL d   1     -11.277 -11.747  15.864 +0.01 +0.04    +0.222    16.279
ATOM     19  O   UNL d   1      -9.310 -11.193  17.507 +0.00 -0.01    -0.303    16.279
ATOM     20  H   UNL d   1      -9.227 -12.131  17.254 +0.00 +0.01    +0.222    16.279
ATOM     21  O   UNL d   1      -6.737 -10.447  11.369 -0.20 -0.01    -0.278    16.279
ATOM     22  P   UNL d   1      -7.573  -9.976  10.094 -0.18 +0.03    +0.473    16.279
ATOM     23  O   UNL d   1      -8.334  -8.697  10.184 -0.31 -0.04    -0.228    16.279
ATOM     24  O   UNL d   1      -6.469 -10.016   8.949 -0.31 +0.06    -0.303    16.279
ATOM     25  H   UNL d   1      -6.522 -10.898   8.500 -0.30 -0.07    +0.222    16.279
ATOM     26  O   UNL d   1      -8.436 -11.287   9.768 -0.19 -0.06    -0.303    16.279
ATOM     27  H   UNL d   1      -7.845 -11.981   9.413 -0.31 -0.04    +0.222    16.279
ATOM     28  O   UNL d   1     -10.607 -12.869  14.454 -0.01 -0.07    -0.278    16.279
ATOM     29  P   UNL d   1      -9.751 -13.715  15.498 +0.01 +0.04    +0.473    16.279
ATOM     30  O   UNL d   1      -8.345 -13.272  15.681 -0.00 -0.01    -0.228    16.279
ATOM     31  O   UNL d   1     -10.710 -13.634  16.776 +0.00 -0.02    -0.303    16.279
ATOM     32  H   UNL d   1     -10.746 -12.698  17.083 +0.00 +0.01    +0.222    16.279
ATOM     33  O   UNL d   1      -9.975 -15.205  14.984 +0.00 -0.02    -0.303    16.279
ATOM     34  H   UNL d   1      -9.458 -15.339  14.152 +0.01 +0.01    +0.222    16.279
ATOM     35  O   UNL d   1      -6.545 -13.224  12.252 -0.03 -0.01    -0.278    16.279
ATOM     36  P   UNL d   1      -5.403 -13.146  11.141 -0.02 -0.01    +0.473    16.279
ATOM     37  O   UNL d   1      -4.692 -14.430  10.855 -0.06 +0.00    -0.228    16.279
ATOM     38  O   UNL d   1      -6.199 -12.547   9.898 +0.09 +0.02    -0.303    16.279
ATOM     39  H   UNL d   1      -6.187 -11.567   9.951 +0.07 -0.02    +0.222    16.279
ATOM     40  O   UNL d   1      -4.517 -11.928  11.650 -0.06 +0.01    -0.303    16.279
ATOM     41  H   UNL d   1      -4.862 -11.066  11.327 +0.08 -0.01    +0.222    16.279
ATOM     42  O   UNL d   1      -9.257 -14.285  12.342 -0.02 -0.04    -0.278    16.279
ATOM     43  P   UNL d   1      -9.969 -14.102  10.926 -0.07 +0.08    +0.473    16.279
ATOM     44  O   UNL d   1     -11.024 -13.057  10.818 -0.13 -0.11    -0.228    16.279
ATOM     45  O   UNL d   1      -8.737 -13.888   9.942 -0.14 -0.01    -0.303    16.279
ATOM     46  H   UNL d   1      -8.021 -13.378  10.370 +0.05 +0.01    +0.222    16.279
ATOM     47  O   UNL d   1     -10.429 -15.592  10.553 -0.03 -0.02    -0.303    16.279
ATOM     48  H   UNL d   1     -11.264 -15.798  11.021 +0.04 +0.02    +0.222    16.279
TER
ENDMDL
MODEL       49
USER    Run = 49
USER    Cluster Rank = 33
USER    Number of conformations in this cluster = 1
USER  
USER    RMSD from reference structure       = 13.633 A
USER  
USER    Estimated Free Energy of Binding    =   +2.81 kcal/mol  [=(1)+(2)+(3)-(4)]
USER    
USER    (1) Final Intermolecular Energy     =   -4.35 kcal/mol
USER        vdW + Hbond + desolv Energy     =   -4.25 kcal/mol
USER        Electrostatic Energy            =   -0.10 kcal/mol
USER    (2) Final Total Internal Energy     =  -13.81 kcal/mol
USER    (3) Torsional Free Energy           =   +7.16 kcal/mol
USER    (4) Unbound System's Energy  [=(2)] =  -13.81 kcal/mol
USER    
USER    
USER  
USER    DPF = D:/Protein_go_brrr/autodock/final/mut_Y35F/IHP/dock.dpf
USER    NEWDPF move	IHP_ideal_opt.pdbqt
USER    NEWDPF about	0.035000 0.082000 -0.065000
USER    NEWDPF tran0	-16.849495 2.701486 3.246125
USER    NEWDPF axisangle0	-0.824491 -0.501123 0.262851 168.567507
USER    NEWDPF quaternion0	-0.820391 -0.498631 0.261544 0.099602
USER    NEWDPF dihe0	118.64 124.88 153.39 1.31 165.16 69.76 -126.13 -151.70 132.94 76.77 83.87 -162.02 -71.76 -176.60 -147.17 -112.80 111.43 -31.69 -151.52 0.16 11.26 -19.43 -17.82 168.85 
USER  
USER                              x       y       z    vdW   Elec        q     RMS 
ATOM      1  C   UNL d   1     -17.425   3.755   2.003 -0.00 +0.02    +0.194    13.633
ATOM      2  C   UNL d   1     -18.459   3.343   3.052 -0.02 +0.03    +0.194    13.633
ATOM      3  C   UNL d   1     -18.363   1.854   3.389 -0.08 +0.03    +0.194    13.633
ATOM      4  C   UNL d   1     -16.951   1.413   3.767 -0.17 +0.04    +0.194    13.633
ATOM      5  C   UNL d   1     -15.872   1.899   2.809 -0.11 +0.04    +0.194    13.633
ATOM      6  C   UNL d   1     -16.004   3.374   2.423 -0.03 +0.03    +0.194    13.633
ATOM      7  O   UNL d   1     -17.463   5.178   1.873 +0.00 -0.03    -0.278    13.633
ATOM      8  P   UNL d   1     -16.584   6.056   2.877 +0.01 +0.07    +0.473    13.633
ATOM      9  O   UNL d   1     -16.178   5.365   4.131 -0.01 -0.06    -0.228    13.633
ATOM     10  O   UNL d   1     -15.345   6.531   1.992 -0.02 -0.04    -0.303    13.633
ATOM     11  H   UNL d   1     -15.062   5.802   1.408 +0.02 +0.03    +0.222    13.633
ATOM     12  O   UNL d   1     -17.397   7.408   3.062 +0.00 -0.03    -0.303    13.633
ATOM     13  H   UNL d   1     -18.143   7.326   3.698 +0.00 +0.03    +0.222    13.633
ATOM     14  O   UNL d   1     -18.235   4.098   4.250 -0.02 -0.05    -0.278    13.633
ATOM     15  P   UNL d   1     -19.519   4.791   4.910 +0.00 +0.06    +0.473    13.633
ATOM     16  O   UNL d   1     -19.475   6.279   5.064 -0.00 -0.03    -0.228    13.633
ATOM     17  O   UNL d   1     -20.734   4.299   4.004 -0.00 -0.03    -0.303    13.633
ATOM     18  H   UNL d   1     -20.786   3.324   3.985 +0.02 +0.02    +0.222    13.633
ATOM     19  O   UNL d   1     -19.768   3.970   6.250 -0.05 -0.05    -0.303    13.633
ATOM     20  H   UNL d   1     -19.910   3.022   6.071 +0.03 +0.03    +0.222    13.633
ATOM     21  O   UNL d   1     -15.164   3.581   1.291 -0.02 -0.04    -0.278    13.633
ATOM     22  P   UNL d   1     -13.649   4.036   1.501 -0.07 +0.09    +0.473    13.633
ATOM     23  O   UNL d   1     -13.230   5.362   0.962 -0.42 -0.06    -0.228    13.633
ATOM     24  O   UNL d   1     -13.475   3.870   3.075 -0.21 -0.10    -0.303    13.633
ATOM     25  H   UNL d   1     -13.020   3.006   3.245 +0.12 +0.07    +0.222    13.633
ATOM     26  O   UNL d   1     -12.847   2.765   0.944 -0.16 -0.05    -0.303    13.633
ATOM     27  H   UNL d   1     -12.493   2.251   1.698 +0.10 +0.03    +0.222    13.633
ATOM     28  O   UNL d   1     -19.153   1.625   4.550 -0.08 -0.04    -0.278    13.633
ATOM     29  P   UNL d   1     -20.687   1.218   4.411 -0.06 +0.04    +0.473    13.633
ATOM     30  O   UNL d   1     -21.612   1.871   5.372 -0.06 -0.01    -0.228    13.633
ATOM     31  O   UNL d   1     -20.918   1.525   2.858 -0.01 -0.03    -0.303    13.633
ATOM     32  H   UNL d   1     -20.968   2.501   2.734 +0.01 +0.02    +0.222    13.633
ATOM     33  O   UNL d   1     -20.615  -0.372   4.449 -0.12 -0.03    -0.303    13.633
ATOM     34  H   UNL d   1     -20.554  -0.713   3.523 +0.04 +0.03    +0.222    13.633
ATOM     35  O   UNL d   1     -14.639   1.758   3.511 -0.17 -0.07    -0.278    13.633
ATOM     36  P   UNL d   1     -13.555   0.691   3.028 -0.30 +0.11    +0.473    13.633
ATOM     37  O   UNL d   1     -12.143   0.982   3.425 -0.38 -0.03    -0.228    13.633
ATOM     38  O   UNL d   1     -14.139  -0.663   3.630 -0.71 -0.13    -0.303    13.633
ATOM     39  H   UNL d   1     -15.013  -0.845   3.222 +0.12 +0.09    +0.222    13.633
ATOM     40  O   UNL d   1     -13.859   0.580   1.470 -0.23 -0.06    -0.303    13.633
ATOM     41  H   UNL d   1     -14.138   1.443   1.091 +0.10 +0.04    +0.222    13.633
ATOM     42  O   UNL d   1     -16.939  -0.018   3.724 -0.42 -0.10    -0.278    13.633
ATOM     43  P   UNL d   1     -17.334  -0.753   2.365 -0.19 +0.14    +0.473    13.633
ATOM     44  O   UNL d   1     -17.386   0.074   1.127 -0.09 -0.05    -0.228    13.633
ATOM     45  O   UNL d   1     -16.293  -1.955   2.302 -0.30 -0.11    -0.303    13.633
ATOM     46  H   UNL d   1     -15.810  -2.054   3.146 -0.22 +0.06    +0.222    13.633
ATOM     47  O   UNL d   1     -18.692  -1.517   2.743 -0.18 -0.09    -0.303    13.633
ATOM     48  H   UNL d   1     -19.058  -1.136   3.567 +0.06 +0.06    +0.222    13.633
TER
ENDMDL
MODEL        7
USER    Run = 7
USER    Cluster Rank = 34
USER    Number of conformations in this cluster = 1
USER  
USER    RMSD from reference structure       = 11.182 A
USER  
USER    Estimated Free Energy of Binding    =   +2.81 kcal/mol  [=(1)+(2)+(3)-(4)]
USER    
USER    (1) Final Intermolecular Energy     =   -4.34 kcal/mol
USER        vdW + Hbond + desolv Energy     =   -4.19 kcal/mol
USER        Electrostatic Energy            =   -0.15 kcal/mol
USER    (2) Final Total Internal Energy     =  -13.61 kcal/mol
USER    (3) Torsional Free Energy           =   +7.16 kcal/mol
USER    (4) Unbound System's Energy  [=(2)] =  -13.61 kcal/mol
USER    
USER    
USER  
USER    DPF = D:/Protein_go_brrr/autodock/final/mut_Y35F/IHP/dock.dpf
USER    NEWDPF move	IHP_ideal_opt.pdbqt
USER    NEWDPF about	0.035000 0.082000 -0.065000
USER    NEWDPF tran0	-5.595200 2.687195 -11.947909
USER    NEWDPF axisangle0	0.017476 -0.991782 0.126739 -169.604638
USER    NEWDPF quaternion0	0.017404 -0.987704 0.126218 -0.090592
USER    NEWDPF dihe0	-159.98 175.05 -116.60 103.96 -83.03 -159.71 -110.91 25.92 6.66 -1.94 155.82 174.92 32.84 -72.96 172.78 52.86 -116.74 93.68 -135.12 -33.32 -170.88 155.40 138.43 -41.37 
USER  
USER                              x       y       z    vdW   Elec        q     RMS 
ATOM      1  C   UNL d   1      -6.914   1.614 -12.252 -0.00 +0.01    +0.194    11.182
ATOM      2  C   UNL d   1      -5.577   0.944 -11.932 -0.04 +0.01    +0.194    11.182
ATOM      3  C   UNL d   1      -4.414   1.624 -12.658 -0.04 +0.01    +0.194    11.182
ATOM      4  C   UNL d   1      -4.370   3.134 -12.439 -0.04 +0.01    +0.194    11.182
ATOM      5  C   UNL d   1      -5.711   3.829 -12.636 -0.01 +0.02    +0.194    11.182
ATOM      6  C   UNL d   1      -6.884   3.115 -11.962 -0.01 +0.02    +0.194    11.182
ATOM      7  O   UNL d   1      -7.915   1.037 -11.410 -0.01 -0.02    -0.278    11.182
ATOM      8  P   UNL d   1      -8.403   1.865 -10.134 -0.04 +0.05    +0.473    11.182
ATOM      9  O   UNL d   1      -9.471   2.867 -10.403 -0.01 -0.03    -0.228    11.182
ATOM     10  O   UNL d   1      -8.843   0.743  -9.090 -0.11 -0.02    -0.303    11.182
ATOM     11  H   UNL d   1      -8.192   0.016  -9.098 +0.06 +0.02    +0.222    11.182
ATOM     12  O   UNL d   1      -7.072   2.430  -9.475 -0.11 -0.05    -0.303    11.182
ATOM     13  H   UNL d   1      -7.113   3.395  -9.290 +0.05 +0.08    +0.222    11.182
ATOM     14  O   UNL d   1      -5.342   1.021 -10.521 -0.12 -0.03    -0.278    11.182
ATOM     15  P   UNL d   1      -5.710  -0.279  -9.661 -0.19 +0.05    +0.473    11.182
ATOM     16  O   UNL d   1      -6.617  -1.278 -10.309 -0.14 -0.02    -0.228    11.182
ATOM     17  O   UNL d   1      -4.295  -0.895  -9.265 -0.21 +0.01    -0.303    11.182
ATOM     18  H   UNL d   1      -4.334  -1.332  -8.392 -0.35 -0.03    +0.222    11.182
ATOM     19  O   UNL d   1      -6.210   0.297  -8.265 -0.49 -0.06    -0.303    11.182
ATOM     20  H   UNL d   1      -6.814   1.053  -8.383 +0.07 +0.01    +0.222    11.182
ATOM     21  O   UNL d   1      -8.076   3.672 -12.511 +0.01 -0.03    -0.278    11.182
ATOM     22  P   UNL d   1      -8.684   3.069 -13.857 +0.01 +0.02    +0.473    11.182
ATOM     23  O   UNL d   1      -9.575   3.939 -14.679 +0.00 -0.01    -0.228    11.182
ATOM     24  O   UNL d   1      -7.376   2.558 -14.605 +0.00 -0.01    -0.303    11.182
ATOM     25  H   UNL d   1      -7.530   2.632 -15.581 +0.00 +0.00    +0.222    11.182
ATOM     26  O   UNL d   1      -9.327   1.696 -13.337 +0.01 -0.01    -0.303    11.182
ATOM     27  H   UNL d   1      -9.555   1.785 -12.389 +0.01 +0.01    +0.222    11.182
ATOM     28  O   UNL d   1      -3.207   1.125 -12.094 -0.07 -0.01    -0.278    11.182
ATOM     29  P   UNL d   1      -2.489   1.910 -10.909 -0.18 +0.04    +0.473    11.182
ATOM     30  O   UNL d   1      -3.379   2.738 -10.056 -0.25 -0.05    -0.228    11.182
ATOM     31  O   UNL d   1      -1.721   0.699 -10.198 -0.30 -0.01    -0.303    11.182
ATOM     32  H   UNL d   1      -2.386   0.032  -9.910 +0.05 -0.01    +0.222    11.182
ATOM     33  O   UNL d   1      -1.316   2.668 -11.674 -0.17 -0.01    -0.303    11.182
ATOM     34  H   UNL d   1      -1.667   3.517 -12.040 +0.08 +0.01    +0.222    11.182
ATOM     35  O   UNL d   1      -5.581   5.105 -12.012 -0.02 -0.04    -0.278    11.182
ATOM     36  P   UNL d   1      -5.981   5.295 -10.480 -0.09 +0.22    +0.473    11.182
ATOM     37  O   UNL d   1      -7.448   5.271 -10.189 -0.59 -0.14    -0.228    11.182
ATOM     38  O   UNL d   1      -5.156   4.127  -9.780 -0.25 -0.14    -0.303    11.182
ATOM     39  H   UNL d   1      -5.479   3.262 -10.111 +0.07 +0.06    +0.222    11.182
ATOM     40  O   UNL d   1      -5.187   6.615 -10.083 -0.55 -0.18    -0.303    11.182
ATOM     41  H   UNL d   1      -4.269   6.608 -10.433 +0.08 +0.06    +0.222    11.182
ATOM     42  O   UNL d   1      -3.471   3.668 -13.417 -0.03 -0.01    -0.278    11.182
ATOM     43  P   UNL d   1      -2.693   5.022 -13.092 -0.06 +0.01    +0.473    11.182
ATOM     44  O   UNL d   1      -1.264   5.108 -13.503 -0.16 +0.00    -0.228    11.182
ATOM     45  O   UNL d   1      -3.628   6.129 -13.749 -0.04 -0.01    -0.303    11.182
ATOM     46  H   UNL d   1      -4.367   6.371 -13.156 +0.04 +0.01    +0.222    11.182
ATOM     47  O   UNL d   1      -2.977   5.241 -11.530 -0.12 -0.03    -0.303    11.182
ATOM     48  H   UNL d   1      -3.614   4.565 -11.220 +0.08 +0.03    +0.222    11.182
TER
ENDMDL
MODEL       51
USER    Run = 51
USER    Cluster Rank = 35
USER    Number of conformations in this cluster = 1
USER  
USER    RMSD from reference structure       = 13.389 A
USER  
USER    Estimated Free Energy of Binding    =   +2.82 kcal/mol  [=(1)+(2)+(3)-(4)]
USER    
USER    (1) Final Intermolecular Energy     =   -4.34 kcal/mol
USER        vdW + Hbond + desolv Energy     =   -4.20 kcal/mol
USER        Electrostatic Energy            =   -0.15 kcal/mol
USER    (2) Final Total Internal Energy     =  -14.97 kcal/mol
USER    (3) Torsional Free Energy           =   +7.16 kcal/mol
USER    (4) Unbound System's Energy  [=(2)] =  -14.97 kcal/mol
USER    
USER    
USER  
USER    DPF = D:/Protein_go_brrr/autodock/final/mut_Y35F/IHP/dock.dpf
USER    NEWDPF move	IHP_ideal_opt.pdbqt
USER    NEWDPF about	0.035000 0.082000 -0.065000
USER    NEWDPF tran0	10.939270 10.006034 8.093256
USER    NEWDPF axisangle0	0.863162 0.500185 0.069043 -67.039161
USER    NEWDPF quaternion0	0.476657 0.276213 0.038127 -0.833697
USER    NEWDPF dihe0	109.58 80.71 179.31 7.69 9.81 -115.30 -40.82 -10.81 63.19 12.48 131.80 90.93 -175.66 80.91 -44.96 167.00 156.56 -135.33 18.31 -32.21 175.88 -31.41 -8.26 159.90 
USER  
USER                              x       y       z    vdW   Elec        q     RMS 
ATOM      1  C   UNL d   1      12.213   9.322   7.148 -0.06 +0.04    +0.194    13.389
ATOM      2  C   UNL d   1      10.815   8.763   6.877 -0.13 +0.05    +0.194    13.389
ATOM      3  C   UNL d   1      10.042   8.517   8.174 -0.17 +0.08    +0.194    13.389
ATOM      4  C   UNL d   1      10.008   9.734   9.094 -0.17 +0.06    +0.194    13.389
ATOM      5  C   UNL d   1      11.365  10.393   9.301 -0.12 +0.05    +0.194    13.389
ATOM      6  C   UNL d   1      12.165  10.583   8.011 -0.07 +0.03    +0.194    13.389
ATOM      7  O   UNL d   1      12.800   9.684   5.896 -0.04 -0.04    -0.278    13.389
ATOM      8  P   UNL d   1      13.920   8.728   5.278 -0.06 +0.10    +0.473    13.389
ATOM      9  O   UNL d   1      15.219   9.390   4.977 -0.59 -0.09    -0.228    13.389
ATOM     10  O   UNL d   1      14.049   7.545   6.341 -0.03 -0.08    -0.303    13.389
ATOM     11  H   UNL d   1      14.130   7.920   7.238 +0.03 +0.06    +0.222    13.389
ATOM     12  O   UNL d   1      13.214   8.000   4.055 -0.18 -0.04    -0.303    13.389
ATOM     13  H   UNL d   1      12.573   8.577   3.581 +0.12 +0.01    +0.222    13.389
ATOM     14  O   UNL d   1      10.083   9.703   6.080 -0.12 -0.04    -0.278    13.389
ATOM     15  P   UNL d   1      10.011   9.406   4.508 -0.16 +0.02    +0.473    13.389
ATOM     16  O   UNL d   1       8.679   9.590   3.850 -0.29 -0.01    -0.228    13.389
ATOM     17  O   UNL d   1      11.142  10.338   3.885 -0.17 +0.03    -0.303    13.389
ATOM     18  H   UNL d   1      12.019   9.912   3.939 +0.10 -0.00    +0.222    13.389
ATOM     19  O   UNL d   1      10.662   7.963   4.347 -0.21 -0.03    -0.303    13.389
ATOM     20  H   UNL d   1      11.537   7.913   4.775 +0.10 +0.03    +0.222    13.389
ATOM     21  O   UNL d   1      13.506  10.878   8.396 -0.01 -0.04    -0.278    13.389
ATOM     22  P   UNL d   1      14.436   9.718   8.976 +0.01 +0.09    +0.473    13.389
ATOM     23  O   UNL d   1      13.788   8.447   9.411 -0.00 -0.07    -0.228    13.389
ATOM     24  O   UNL d   1      15.514   9.555   7.817 -0.00 -0.06    -0.303    13.389
ATOM     25  H   UNL d   1      15.032   9.364   6.972 +0.02 +0.05    +0.222    13.389
ATOM     26  O   UNL d   1      15.272  10.502  10.098 +0.00 -0.05    -0.303    13.389
ATOM     27  H   UNL d   1      14.679  10.723  10.845 +0.01 +0.04    +0.222    13.389
ATOM     28  O   UNL d   1       8.686   8.271   7.824 -0.19 -0.10    -0.278    13.389
ATOM     29  P   UNL d   1       8.241   6.840   7.283 -0.21 +0.25    +0.473    13.389
ATOM     30  O   UNL d   1       6.923   6.354   7.765 -0.28 -0.10    -0.228    13.389
ATOM     31  O   UNL d   1       8.397   7.075   5.708 -0.09 -0.09    -0.303    13.389
ATOM     32  H   UNL d   1       8.870   7.927   5.563 +0.10 +0.05    +0.222    13.389
ATOM     33  O   UNL d   1       9.510   5.942   7.632 -0.60 -0.42    -0.303    13.389
ATOM     34  H   UNL d   1       9.772   6.109   8.571 +0.06 +0.43    +0.222    13.389
ATOM     35  O   UNL d   1      11.090  11.693   9.820 -0.13 -0.07    -0.278    13.389
ATOM     36  P   UNL d   1      11.696  12.145  11.224 -0.08 +0.18    +0.473    13.389
ATOM     37  O   UNL d   1      10.989  13.277  11.898 -0.18 -0.17    -0.228    13.389
ATOM     38  O   UNL d   1      11.675  10.779  12.043 -0.04 -0.12    -0.303    13.389
ATOM     39  H   UNL d   1      11.208  10.096  11.515 +0.04 +0.08    +0.222    13.389
ATOM     40  O   UNL d   1      13.234  12.359  10.877 -0.02 -0.07    -0.303    13.389
ATOM     41  H   UNL d   1      13.526  11.775  10.142 +0.02 +0.04    +0.222    13.389
ATOM     42  O   UNL d   1       9.564   9.273  10.375 +0.03 -0.11    -0.278    13.389
ATOM     43  P   UNL d   1      10.255   7.986  11.014 -0.06 +0.27    +0.473    13.389
ATOM     44  O   UNL d   1       9.663   6.657  10.692 -0.32 -0.28    -0.228    13.389
ATOM     45  O   UNL d   1      11.774   8.147  10.566 -0.03 -0.15    -0.303    13.389
ATOM     46  H   UNL d   1      12.156   8.986  10.890 +0.03 +0.08    +0.222    13.389
ATOM     47  O   UNL d   1      10.335   8.349  12.573 -0.06 -0.13    -0.303    13.389
ATOM     48  H   UNL d   1      11.184   8.802  12.755 +0.03 +0.08    +0.222    13.389
TER
ENDMDL
MODEL       92
USER    Run = 92
USER    Cluster Rank = 36
USER    Number of conformations in this cluster = 1
USER  
USER    RMSD from reference structure       = 14.094 A
USER  
USER    Estimated Free Energy of Binding    =   +2.88 kcal/mol  [=(1)+(2)+(3)-(4)]
USER    
USER    (1) Final Intermolecular Energy     =   -4.28 kcal/mol
USER        vdW + Hbond + desolv Energy     =   -3.99 kcal/mol
USER        Electrostatic Energy            =   -0.29 kcal/mol
USER    (2) Final Total Internal Energy     =  -13.64 kcal/mol
USER    (3) Torsional Free Energy           =   +7.16 kcal/mol
USER    (4) Unbound System's Energy  [=(2)] =  -13.64 kcal/mol
USER    
USER    
USER  
USER    DPF = D:/Protein_go_brrr/autodock/final/mut_Y35F/IHP/dock.dpf
USER    NEWDPF move	IHP_ideal_opt.pdbqt
USER    NEWDPF about	0.035000 0.082000 -0.065000
USER    NEWDPF tran0	-1.709782 14.580054 -9.570490
USER    NEWDPF axisangle0	0.144351 -0.082875 -0.986050 157.763698
USER    NEWDPF quaternion0	0.141642 -0.081320 -0.967543 0.192833
USER    NEWDPF dihe0	101.46 14.20 121.04 129.21 -126.84 -122.14 -35.54 -172.29 102.66 -86.89 -27.84 -177.36 178.93 88.29 11.23 143.58 171.61 -125.97 28.25 -19.14 158.03 -33.91 -32.70 160.10 
USER  
USER                              x       y       z    vdW   Elec        q     RMS 
ATOM      1  C   UNL d   1      -2.660  15.997  -9.296 -0.02 -0.04    +0.194    14.094
ATOM      2  C   UNL d   1      -1.146  16.215  -9.346 -0.04 -0.03    +0.194    14.094
ATOM      3  C   UNL d   1      -0.391  15.130  -8.576 -0.15 -0.04    +0.194    14.094
ATOM      4  C   UNL d   1      -0.784  13.714  -8.990 -0.21 -0.04    +0.194    14.094
ATOM      5  C   UNL d   1      -2.288  13.484  -9.065 -0.14 -0.05    +0.194    14.094
ATOM      6  C   UNL d   1      -3.051  14.600  -9.782 -0.03 -0.04    +0.194    14.094
ATOM      7  O   UNL d   1      -3.276  16.942 -10.173 -0.00 +0.03    -0.278    14.094
ATOM      8  P   UNL d   1      -3.795  18.322  -9.559 +0.00 -0.06    +0.473    14.094
ATOM      9  O   UNL d   1      -5.198  18.678  -9.905 +0.00 +0.02    -0.228    14.094
ATOM     10  O   UNL d   1      -3.557  18.161  -7.990 +0.00 +0.06    -0.303    14.094
ATOM     11  H   UNL d   1      -4.020  17.364  -7.669 +0.01 -0.06    +0.222    14.094
ATOM     12  O   UNL d   1      -2.690  19.392  -9.955 +0.00 +0.03    -0.303    14.094
ATOM     13  H   UNL d   1      -1.786  19.008 -10.017 +0.00 -0.02    +0.222    14.094
ATOM     14  O   UNL d   1      -0.716  16.188 -10.713 -0.03 +0.02    -0.278    14.094
ATOM     15  P   UNL d   1      -0.177  17.568 -11.321 +0.00 -0.02    +0.473    14.094
ATOM     16  O   UNL d   1       0.962  17.477 -12.288 -0.02 +0.01    -0.228    14.094
ATOM     17  O   UNL d   1      -1.473  18.244 -11.956 -0.00 +0.02    -0.303    14.094
ATOM     18  H   UNL d   1      -2.286  17.926 -11.517 +0.00 -0.02    +0.222    14.094
ATOM     19  O   UNL d   1       0.074  18.490 -10.050 -0.00 +0.01    -0.303    14.094
ATOM     20  H   UNL d   1       0.830  18.176  -9.521 +0.03 -0.00    +0.222    14.094
ATOM     21  O   UNL d   1      -4.431  14.421  -9.472 -0.01 +0.06    -0.278    14.094
ATOM     22  P   UNL d   1      -4.900  14.368  -7.948 -0.03 -0.17    +0.473    14.094
ATOM     23  O   UNL d   1      -4.287  15.331  -6.988 -0.06 +0.10    -0.228    14.094
ATOM     24  O   UNL d   1      -6.481  14.484  -8.091 -0.01 +0.08    -0.303    14.094
ATOM     25  H   UNL d   1      -6.887  14.251  -7.217 +0.03 -0.08    +0.222    14.094
ATOM     26  O   UNL d   1      -4.711  12.814  -7.604 -0.10 +0.18    -0.303    14.094
ATOM     27  H   UNL d   1      -3.763  12.583  -7.670 +0.07 -0.12    +0.222    14.094
ATOM     28  O   UNL d   1       0.987  15.251  -8.906 -0.20 +0.02    -0.278    14.094
ATOM     29  P   UNL d   1       1.870  16.408  -8.259 -0.12 +0.04    +0.473    14.094
ATOM     30  O   UNL d   1       3.001  15.952  -7.410 -0.28 -0.09    -0.228    14.094
ATOM     31  O   UNL d   1       2.240  17.244  -9.573 -0.05 -0.02    -0.303    14.094
ATOM     32  H   UNL d   1       1.631  16.974 -10.298 +0.05 +0.00    +0.222    14.094
ATOM     33  O   UNL d   1       0.767  17.319  -7.560 -0.04 +0.01    -0.303    14.094
ATOM     34  H   UNL d   1       0.733  18.192  -8.023 +0.04 +0.00    +0.222    14.094
ATOM     35  O   UNL d   1      -2.461  12.296  -9.835 -0.13 +0.05    -0.278    14.094
ATOM     36  P   UNL d   1      -2.687  10.893  -9.110 -0.19 -0.14    +0.473    14.094
ATOM     37  O   UNL d   1      -2.058   9.713  -9.779 -0.32 +0.03    -0.228    14.094
ATOM     38  O   UNL d   1      -2.133  11.189  -7.647 -0.21 +0.13    -0.303    14.094
ATOM     39  H   UNL d   1      -2.307  12.129  -7.421 +0.12 -0.09    +0.222    14.094
ATOM     40  O   UNL d   1      -4.266  10.859  -8.922 -0.19 +0.17    -0.303    14.094
ATOM     41  H   UNL d   1      -4.518  10.660  -7.993 -0.42 -0.34    +0.222    14.094
ATOM     42  O   UNL d   1      -0.272  12.831  -7.986 -0.14 +0.08    -0.278    14.094
ATOM     43  P   UNL d   1      -0.551  13.164  -6.452 -0.22 -0.23    +0.473    14.094
ATOM     44  O   UNL d   1       0.316  14.186  -5.802 -0.34 +0.14    -0.228    14.094
ATOM     45  O   UNL d   1      -2.100  13.529  -6.450 -0.15 +0.19    -0.303    14.094
ATOM     46  H   UNL d   1      -2.240  14.497  -6.429 +0.06 -0.17    +0.222    14.094
ATOM     47  O   UNL d   1      -0.557  11.719  -5.758 -0.67 +0.14    -0.303    14.094
ATOM     48  H   UNL d   1      -0.367  11.036  -6.434 +0.11 -0.07    +0.222    14.094
TER
ENDMDL
MODEL       95
USER    Run = 95
USER    Cluster Rank = 37
USER    Number of conformations in this cluster = 1
USER  
USER    RMSD from reference structure       = 17.892 A
USER  
USER    Estimated Free Energy of Binding    =   +3.03 kcal/mol  [=(1)+(2)+(3)-(4)]
USER    
USER    (1) Final Intermolecular Energy     =   -4.13 kcal/mol
USER        vdW + Hbond + desolv Energy     =   -3.78 kcal/mol
USER        Electrostatic Energy            =   -0.35 kcal/mol
USER    (2) Final Total Internal Energy     =  -13.79 kcal/mol
USER    (3) Torsional Free Energy           =   +7.16 kcal/mol
USER    (4) Unbound System's Energy  [=(2)] =  -13.79 kcal/mol
USER    
USER    
USER  
USER    DPF = D:/Protein_go_brrr/autodock/final/mut_Y35F/IHP/dock.dpf
USER    NEWDPF move	IHP_ideal_opt.pdbqt
USER    NEWDPF about	0.035000 0.082000 -0.065000
USER    NEWDPF tran0	2.189486 -20.276939 -6.368589
USER    NEWDPF axisangle0	-0.241536 0.821651 -0.516286 -106.888397
USER    NEWDPF quaternion0	-0.194020 0.660013 -0.414720 -0.595605
USER    NEWDPF dihe0	180.00 -2.70 125.30 88.62 21.81 -57.86 -40.04 -32.71 167.78 58.54 105.24 -180.00 -118.75 93.61 -103.07 18.38 156.92 78.41 37.48 -9.47 -12.89 -18.99 -180.00 26.42 
USER  
USER                              x       y       z    vdW   Elec        q     RMS 
ATOM      1  C   UNL d   1       2.458 -21.983  -6.418 -0.00 -0.03    +0.194    17.892
ATOM      2  C   UNL d   1       2.186 -21.397  -5.032 -0.03 -0.04    +0.194    17.892
ATOM      3  C   UNL d   1       2.944 -20.086  -4.812 -0.04 -0.04    +0.194    17.892
ATOM      4  C   UNL d   1       2.718 -19.066  -5.924 -0.08 -0.06    +0.194    17.892
ATOM      5  C   UNL d   1       2.866 -19.636  -7.329 -0.03 -0.05    +0.194    17.892
ATOM      6  C   UNL d   1       2.158 -20.977  -7.531 -0.01 -0.05    +0.194    17.892
ATOM      7  O   UNL d   1       1.587 -23.101  -6.609 -0.00 +0.04    -0.278    17.892
ATOM      8  P   UNL d   1       2.048 -24.525  -6.051 +0.01 -0.04    +0.473    17.892
ATOM      9  O   UNL d   1       3.227 -25.120  -6.737 +0.00 +0.01    -0.228    17.892
ATOM     10  O   UNL d   1       2.288 -24.271  -4.494 +0.00 +0.02    -0.303    17.892
ATOM     11  H   UNL d   1       1.786 -23.485  -4.210 +0.01 -0.02    +0.222    17.892
ATOM     12  O   UNL d   1       0.729 -25.412  -6.044 +0.00 +0.02    -0.303    17.892
ATOM     13  H   UNL d   1      -0.040 -24.955  -5.634 +0.01 -0.02    +0.222    17.892
ATOM     14  O   UNL d   1       0.782 -21.139  -4.901 -0.08 +0.14    -0.278    17.892
ATOM     15  P   UNL d   1       0.030 -21.867  -3.689 -0.10 -0.08    +0.473    17.892
ATOM     16  O   UNL d   1      -1.136 -21.146  -3.091 -0.69 -0.10    -0.228    17.892
ATOM     17  O   UNL d   1      -0.363 -23.294  -4.279 -0.02 +0.04    -0.303    17.892
ATOM     18  H   UNL d   1       0.276 -23.582  -4.958 +0.02 -0.03    +0.222    17.892
ATOM     19  O   UNL d   1       1.193 -22.251  -2.674 -0.03 +0.00    -0.303    17.892
ATOM     20  H   UNL d   1       1.942 -21.629  -2.732 +0.03 -0.01    +0.222    17.892
ATOM     21  O   UNL d   1       2.665 -21.532  -8.743 -0.00 +0.04    -0.278    17.892
ATOM     22  P   UNL d   1       1.689 -21.736  -9.989 +0.01 -0.03    +0.473    17.892
ATOM     23  O   UNL d   1       0.682 -22.834  -9.923 -0.00 +0.01    -0.228    17.892
ATOM     24  O   UNL d   1       1.075 -20.277 -10.163 -0.01 +0.03    -0.303    17.892
ATOM     25  H   UNL d   1       0.833 -19.935  -9.265 +0.05 -0.05    +0.222    17.892
ATOM     26  O   UNL d   1       2.728 -21.806 -11.208 +0.00 +0.01    -0.303    17.892
ATOM     27  H   UNL d   1       2.550 -22.611 -11.736 +0.00 -0.00    +0.222    17.892
ATOM     28  O   UNL d   1       2.424 -19.483  -3.634 -0.07 +0.06    -0.278    17.892
ATOM     29  P   UNL d   1       3.088 -19.779  -2.217 -0.07 -0.05    +0.473    17.892
ATOM     30  O   UNL d   1       4.134 -20.833  -2.208 -0.02 +0.02    -0.228    17.892
ATOM     31  O   UNL d   1       3.544 -18.300  -1.808 -0.15 +0.06    -0.303    17.892
ATOM     32  H   UNL d   1       3.126 -17.660  -2.429 +0.07 -0.05    +0.222    17.892
ATOM     33  O   UNL d   1       1.813 -20.022  -1.295 -0.14 -0.02    -0.303    17.892
ATOM     34  H   UNL d   1       1.067 -20.344  -1.857 +0.05 +0.03    +0.222    17.892
ATOM     35  O   UNL d   1       2.238 -18.695  -8.197 -0.06 +0.09    -0.278    17.892
ATOM     36  P   UNL d   1       0.773 -18.155  -7.873 -0.19 -0.24    +0.473    17.892
ATOM     37  O   UNL d   1       0.021 -17.592  -9.037 -0.30 +0.09    -0.228    17.892
ATOM     38  O   UNL d   1       0.093 -19.433  -7.211 -0.08 +0.28    -0.303    17.892
ATOM     39  H   UNL d   1       0.136 -19.350  -6.234 -0.44 -0.32    +0.222    17.892
ATOM     40  O   UNL d   1       1.034 -17.180  -6.643 -0.30 +0.18    -0.303    17.892
ATOM     41  H   UNL d   1       1.984 -16.941  -6.564 -0.21 -0.13    +0.222    17.892
ATOM     42  O   UNL d   1       3.721 -18.056  -5.771 -0.06 +0.08    -0.278    17.892
ATOM     43  P   UNL d   1       3.459 -16.856  -4.754 -0.14 -0.14    +0.473    17.892
ATOM     44  O   UNL d   1       4.469 -16.631  -3.683 -0.13 +0.06    -0.228    17.892
ATOM     45  O   UNL d   1       3.252 -15.613  -5.726 -0.24 +0.13    -0.303    17.892
ATOM     46  H   UNL d   1       2.837 -15.883  -6.569 -0.31 -0.18    +0.222    17.892
ATOM     47  O   UNL d   1       1.962 -17.126  -4.247 -0.13 +0.10    -0.303    17.892
ATOM     48  H   UNL d   1       1.608 -17.922  -4.695 +0.09 -0.09    +0.222    17.892
TER
ENDMDL
MODEL       25
USER    Run = 25
USER    Cluster Rank = 38
USER    Number of conformations in this cluster = 1
USER  
USER    RMSD from reference structure       = 10.766 A
USER  
USER    Estimated Free Energy of Binding    =   +3.05 kcal/mol  [=(1)+(2)+(3)-(4)]
USER    
USER    (1) Final Intermolecular Energy     =   -4.11 kcal/mol
USER        vdW + Hbond + desolv Energy     =   -3.78 kcal/mol
USER        Electrostatic Energy            =   -0.33 kcal/mol
USER    (2) Final Total Internal Energy     =  -14.27 kcal/mol
USER    (3) Torsional Free Energy           =   +7.16 kcal/mol
USER    (4) Unbound System's Energy  [=(2)] =  -14.27 kcal/mol
USER    
USER    
USER  
USER    DPF = D:/Protein_go_brrr/autodock/final/mut_Y35F/IHP/dock.dpf
USER    NEWDPF move	IHP_ideal_opt.pdbqt
USER    NEWDPF about	0.035000 0.082000 -0.065000
USER    NEWDPF tran0	-10.151962 10.543642 -2.602726
USER    NEWDPF axisangle0	-0.754789 0.477970 -0.449264 149.589307
USER    NEWDPF quaternion0	-0.728366 0.461237 -0.433536 0.262279
USER    NEWDPF dihe0	-92.88 9.99 120.82 -19.97 124.75 169.38 -100.67 -20.76 179.89 95.76 -143.19 173.08 169.37 -179.97 40.33 169.49 89.85 162.81 56.25 12.35 -174.50 13.00 13.41 -177.54 
USER  
USER                              x       y       z    vdW   Elec        q     RMS 
ATOM      1  C   UNL d   1      -8.796   9.756  -1.877 -0.14 -0.05    +0.194    10.766
ATOM      2  C   UNL d   1      -8.465  10.951  -2.773 -0.13 -0.11    +0.194    10.766
ATOM      3  C   UNL d   1      -9.289  10.938  -4.063 -0.11 -0.07    +0.194    10.766
ATOM      4  C   UNL d   1     -10.790  10.800  -3.815 -0.02 -0.03    +0.194    10.766
ATOM      5  C   UNL d   1     -11.158   9.693  -2.837 -0.02 -0.01    +0.194    10.766
ATOM      6  C   UNL d   1     -10.293   9.668  -1.575 -0.06 -0.03    +0.194    10.766
ATOM      7  O   UNL d   1      -8.120   9.933  -0.630 -0.12 +0.08    -0.278    10.766
ATOM      8  P   UNL d   1      -6.523   9.882  -0.619 -0.27 -0.19    +0.473    10.766
ATOM      9  O   UNL d   1      -5.923   9.150   0.528 -0.47 +0.07    -0.228    10.766
ATOM     10  O   UNL d   1      -6.146   9.249  -2.035 -0.35 +0.22    -0.303    10.766
ATOM     11  H   UNL d   1      -5.747   9.934  -2.603 -0.34 -0.36    +0.222    10.766
ATOM     12  O   UNL d   1      -6.061  11.392  -0.797 -0.28 +0.15    -0.303    10.766
ATOM     13  H   UNL d   1      -6.655  11.910  -1.386 +0.10 -0.13    +0.222    10.766
ATOM     14  O   UNL d   1      -8.749  12.162  -2.062 -0.04 +0.10    -0.278    10.766
ATOM     15  P   UNL d   1      -7.759  13.393  -2.320 -0.05 -0.21    +0.473    10.766
ATOM     16  O   UNL d   1      -7.107  13.995  -1.116 -0.11 +0.09    -0.228    10.766
ATOM     17  O   UNL d   1      -6.707  12.830  -3.376 -0.17 +0.28    -0.303    10.766
ATOM     18  H   UNL d   1      -7.090  12.098  -3.897 -0.23 -0.32    +0.222    10.766
ATOM     19  O   UNL d   1      -8.604  14.399  -3.218 -0.01 +0.09    -0.303    10.766
ATOM     20  H   UNL d   1      -8.616  14.125  -4.153 +0.03 -0.07    +0.222    10.766
ATOM     21  O   UNL d   1     -10.519   8.409  -0.945 -0.09 +0.03    -0.278    10.766
ATOM     22  P   UNL d   1      -9.715   7.122  -1.437 -0.11 -0.01    +0.473    10.766
ATOM     23  O   UNL d   1      -8.255   7.045  -1.137 -0.27 +0.00    -0.228    10.766
ATOM     24  O   UNL d   1     -10.585   5.940  -0.822 -0.21 -0.01    -0.303    10.766
ATOM     25  H   UNL d   1     -11.506   6.017  -1.179 +0.06 +0.01    +0.222    10.766
ATOM     26  O   UNL d   1     -10.118   7.058  -2.987 -0.07 -0.04    -0.303    10.766
ATOM     27  H   UNL d   1     -10.781   7.754  -3.176 +0.05 +0.01    +0.222    10.766
ATOM     28  O   UNL d   1      -9.125  12.204  -4.689 -0.06 +0.11    -0.278    10.766
ATOM     29  P   UNL d   1      -8.585  12.297  -6.184 -0.07 -0.20    +0.473    10.766
ATOM     30  O   UNL d   1      -9.185  13.372  -7.016 -0.01 +0.05    -0.228    10.766
ATOM     31  O   UNL d   1      -7.011  12.385  -5.908 -0.07 +0.31    -0.303    10.766
ATOM     32  H   UNL d   1      -6.851  13.075  -5.224 +0.04 -0.19    +0.222    10.766
ATOM     33  O   UNL d   1      -8.768  10.802  -6.700 -0.15 +0.08    -0.303    10.766
ATOM     34  H   UNL d   1      -9.612  10.438  -6.335 +0.04 -0.03    +0.222    10.766
ATOM     35  O   UNL d   1     -12.495   9.971  -2.423 -0.00 +0.01    -0.278    10.766
ATOM     36  P   UNL d   1     -13.517   8.777  -2.150 +0.01 -0.00    +0.473    10.766
ATOM     37  O   UNL d   1     -14.319   8.890  -0.893 -0.01 -0.00    -0.228    10.766
ATOM     38  O   UNL d   1     -14.387   8.781  -3.484 +0.00 -0.00    -0.303    10.766
ATOM     39  H   UNL d   1     -14.174   7.979  -4.008 +0.01 +0.00    +0.222    10.766
ATOM     40  O   UNL d   1     -12.590   7.494  -2.301 -0.01 -0.01    -0.303    10.766
ATOM     41  H   UNL d   1     -11.799   7.545  -1.719 +0.04 +0.00    +0.222    10.766
ATOM     42  O   UNL d   1     -11.388  10.467  -5.073 -0.01 +0.02    -0.278    10.766
ATOM     43  P   UNL d   1     -11.147   9.012  -5.680 -0.03 +0.03    +0.473    10.766
ATOM     44  O   UNL d   1     -11.180   8.873  -7.163 -0.03 -0.02    -0.228    10.766
ATOM     45  O   UNL d   1      -9.766   8.581  -5.017 -0.06 -0.05    -0.303    10.766
ATOM     46  H   UNL d   1      -9.751   7.626  -4.809 +0.05 +0.08    +0.222    10.766
ATOM     47  O   UNL d   1     -12.192   8.101  -4.876 -0.01 -0.02    -0.303    10.766
ATOM     48  H   UNL d   1     -12.597   8.632  -4.159 +0.02 +0.00    +0.222    10.766
TER
ENDMDL
MODEL       54
USER    Run = 54
USER    Cluster Rank = 39
USER    Number of conformations in this cluster = 1
USER  
USER    RMSD from reference structure       = 16.525 A
USER  
USER    Estimated Free Energy of Binding    =   +3.10 kcal/mol  [=(1)+(2)+(3)-(4)]
USER    
USER    (1) Final Intermolecular Energy     =   -4.06 kcal/mol
USER        vdW + Hbond + desolv Energy     =   -3.83 kcal/mol
USER        Electrostatic Energy            =   -0.23 kcal/mol
USER    (2) Final Total Internal Energy     =  -14.53 kcal/mol
USER    (3) Torsional Free Energy           =   +7.16 kcal/mol
USER    (4) Unbound System's Energy  [=(2)] =  -14.53 kcal/mol
USER    
USER    
USER  
USER    DPF = D:/Protein_go_brrr/autodock/final/mut_Y35F/IHP/dock.dpf
USER    NEWDPF move	IHP_ideal_opt.pdbqt
USER    NEWDPF about	0.035000 0.082000 -0.065000
USER    NEWDPF tran0	-8.017693 -10.613793 -14.907911
USER    NEWDPF axisangle0	-0.067336 -0.787742 -0.612314 89.959845
USER    NEWDPF quaternion0	-0.047597 -0.556823 -0.432820 0.707355
USER    NEWDPF dihe0	180.00 -27.03 107.14 111.79 87.48 -124.90 80.58 -128.49 -13.11 -9.14 1.72 -166.11 -119.71 98.17 107.24 -115.20 -145.91 -40.09 41.36 -5.85 7.38 19.44 -19.56 -175.44 
USER  
USER                              x       y       z    vdW   Elec        q     RMS 
ATOM      1  C   UNL d   1      -6.859 -10.003 -16.034 -0.01 -0.00    +0.194    16.525
ATOM      2  C   UNL d   1      -6.722 -11.486 -15.683 -0.01 +0.00    +0.194    16.525
ATOM      3  C   UNL d   1      -6.897 -11.731 -14.183 -0.05 -0.01    +0.194    16.525
ATOM      4  C   UNL d   1      -8.178 -11.120 -13.619 -0.09 -0.01    +0.194    16.525
ATOM      5  C   UNL d   1      -8.414  -9.675 -14.040 -0.06 -0.01    +0.194    16.525
ATOM      6  C   UNL d   1      -8.178  -9.417 -15.529 -0.01 -0.00    +0.194    16.525
ATOM      7  O   UNL d   1      -6.856  -9.881 -17.459 +0.00 -0.00    -0.278    16.525
ATOM      8  P   UNL d   1      -5.451  -9.897 -18.219 +0.00 +0.00    +0.473    16.525
ATOM      9  O   UNL d   1      -4.585  -8.713 -17.971 +0.00 -0.00    -0.228    16.525
ATOM     10  O   UNL d   1      -4.780 -11.271 -17.762 -0.00 -0.01    -0.303    16.525
ATOM     11  H   UNL d   1      -5.473 -11.888 -17.459 +0.00 +0.01    +0.222    16.525
ATOM     12  O   UNL d   1      -5.807 -10.191 -19.739 +0.00 -0.00    -0.303    16.525
ATOM     13  H   UNL d   1      -6.093 -11.119 -19.896 +0.00 +0.00    +0.222    16.525
ATOM     14  O   UNL d   1      -7.725 -12.228 -16.387 -0.00 -0.01    -0.278    16.525
ATOM     15  P   UNL d   1      -7.213 -13.450 -17.286 +0.00 +0.03    +0.473    16.525
ATOM     16  O   UNL d   1      -8.184 -14.564 -17.521 -0.01 -0.02    -0.228    16.525
ATOM     17  O   UNL d   1      -6.726 -12.760 -18.637 -0.00 -0.01    -0.303    16.525
ATOM     18  H   UNL d   1      -6.679 -11.790 -18.539 +0.00 +0.01    +0.222    16.525
ATOM     19  O   UNL d   1      -5.829 -13.874 -16.626 -0.01 -0.03    -0.303    16.525
ATOM     20  H   UNL d   1      -5.918 -14.028 -15.668 +0.04 +0.02    +0.222    16.525
ATOM     21  O   UNL d   1      -8.098  -8.004 -15.695 -0.00 +0.00    -0.278    16.525
ATOM     22  P   UNL d   1      -9.400  -7.181 -16.112 +0.00 -0.00    +0.473    16.525
ATOM     23  O   UNL d   1      -9.665  -5.885 -15.423 -0.01 +0.00    -0.228    16.525
ATOM     24  O   UNL d   1      -9.226  -7.074 -17.690 +0.00 +0.00    -0.303    16.525
ATOM     25  H   UNL d   1      -8.614  -7.797 -17.983 +0.00 +0.00    +0.222    16.525
ATOM     26  O   UNL d   1     -10.545  -8.295 -15.980 -0.00 +0.00    -0.303    16.525
ATOM     27  H   UNL d   1     -10.583  -8.609 -15.054 +0.02 -0.00    +0.222    16.525
ATOM     28  O   UNL d   1      -7.031 -13.134 -13.991 -0.06 +0.00    -0.278    16.525
ATOM     29  P   UNL d   1      -6.145 -13.885 -12.902 -0.14 -0.03    +0.473    16.525
ATOM     30  O   UNL d   1      -5.648 -15.228 -13.297 -0.21 -0.03    -0.228    16.525
ATOM     31  O   UNL d   1      -5.044 -12.760 -12.613 -0.19 +0.05    -0.303    16.525
ATOM     32  H   UNL d   1      -4.947 -12.658 -11.638 -0.19 -0.09    +0.222    16.525
ATOM     33  O   UNL d   1      -7.070 -13.812 -11.609 -0.36 +0.07    -0.303    16.525
ATOM     34  H   UNL d   1      -7.114 -12.874 -11.298 -0.02 -0.09    +0.222    16.525
ATOM     35  O   UNL d   1      -9.792  -9.417 -13.782 -0.07 +0.01    -0.278    16.525
ATOM     36  P   UNL d   1     -10.219  -8.416 -12.616 -0.12 -0.06    +0.473    16.525
ATOM     37  O   UNL d   1     -10.680  -9.062 -11.348 -0.25 +0.02    -0.228    16.525
ATOM     38  O   UNL d   1      -8.910  -7.523 -12.457 -0.06 +0.08    -0.303    16.525
ATOM     39  H   UNL d   1      -8.270  -7.992 -11.878 -0.40 -0.10    +0.222    16.525
ATOM     40  O   UNL d   1     -11.250  -7.455 -13.353 -0.06 +0.01    -0.303    16.525
ATOM     41  H   UNL d   1     -10.879  -7.097 -14.190 +0.03 -0.00    +0.222    16.525
ATOM     42  O   UNL d   1      -8.049 -11.128 -12.193 -0.18 +0.05    -0.278    16.525
ATOM     43  P   UNL d   1      -7.060 -10.085 -11.503 -0.19 -0.12    +0.473    16.525
ATOM     44  O   UNL d   1      -6.416  -9.065 -12.378 -0.14 +0.03    -0.228    16.525
ATOM     45  O   UNL d   1      -7.956  -9.471 -10.340 -0.27 +0.14    -0.303    16.525
ATOM     46  H   UNL d   1      -8.655  -8.887 -10.697 -0.42 -0.15    +0.222    16.525
ATOM     47  O   UNL d   1      -6.054 -11.022 -10.679 -0.18 +0.12    -0.303    16.525
ATOM     48  H   UNL d   1      -6.169 -11.951 -10.968 -0.15 -0.11    +0.222    16.525
TER
ENDMDL
MODEL       59
USER    Run = 59
USER    Cluster Rank = 40
USER    Number of conformations in this cluster = 1
USER  
USER    RMSD from reference structure       = 20.598 A
USER  
USER    Estimated Free Energy of Binding    =   +3.11 kcal/mol  [=(1)+(2)+(3)-(4)]
USER    
USER    (1) Final Intermolecular Energy     =   -4.05 kcal/mol
USER        vdW + Hbond + desolv Energy     =   -3.89 kcal/mol
USER        Electrostatic Energy            =   -0.16 kcal/mol
USER    (2) Final Total Internal Energy     =  -10.77 kcal/mol
USER    (3) Torsional Free Energy           =   +7.16 kcal/mol
USER    (4) Unbound System's Energy  [=(2)] =  -10.77 kcal/mol
USER    
USER    
USER  
USER    DPF = D:/Protein_go_brrr/autodock/final/mut_Y35F/IHP/dock.dpf
USER    NEWDPF move	IHP_ideal_opt.pdbqt
USER    NEWDPF about	0.035000 0.082000 -0.065000
USER    NEWDPF tran0	14.507794 12.110132 -14.689236
USER    NEWDPF axisangle0	-0.716268 0.541310 0.440390 113.234218
USER    NEWDPF quaternion0	-0.598093 0.452001 0.367731 0.550231
USER    NEWDPF dihe0	119.58 116.77 47.87 -161.87 67.66 111.08 -63.54 84.39 -3.48 107.92 -61.35 -179.81 153.26 -134.19 23.67 -180.00 -84.15 6.57 32.02 -41.69 164.57 -28.41 -0.30 -17.30 
USER  
USER                              x       y       z    vdW   Elec        q     RMS 
ATOM      1  C   UNL d   1      14.289  10.655 -15.595 -0.09 -0.04    +0.194    20.598
ATOM      2  C   UNL d   1      14.344  11.944 -16.417 -0.02 -0.02    +0.194    20.598
ATOM      3  C   UNL d   1      13.531  13.066 -15.768 -0.01 -0.02    +0.194    20.598
ATOM      4  C   UNL d   1      13.893  13.300 -14.303 -0.02 -0.02    +0.194    20.598
ATOM      5  C   UNL d   1      13.963  12.027 -13.470 -0.08 -0.03    +0.194    20.598
ATOM      6  C   UNL d   1      14.723  10.885 -14.147 -0.13 -0.05    +0.194    20.598
ATOM      7  O   UNL d   1      15.204   9.720 -16.171 -0.08 +0.09    -0.278    20.598
ATOM      8  P   UNL d   1      14.664   8.727 -17.299 -0.06 -0.11    +0.473    20.598
ATOM      9  O   UNL d   1      15.426   7.456 -17.439 -0.18 +0.05    -0.228    20.598
ATOM     10  O   UNL d   1      13.132   8.501 -16.915 -0.06 +0.05    -0.303    20.598
ATOM     11  H   UNL d   1      13.043   8.446 -15.945 +0.05 -0.05    +0.222    20.598
ATOM     12  O   UNL d   1      14.550   9.615 -18.612 -0.01 +0.04    -0.303    20.598
ATOM     13  H   UNL d   1      15.425   9.855 -18.992 +0.02 -0.03    +0.222    20.598
ATOM     14  O   UNL d   1      15.707  12.372 -16.525 -0.01 +0.03    -0.278    20.598
ATOM     15  P   UNL d   1      16.537  11.812 -17.775 -0.00 -0.05    +0.473    20.598
ATOM     16  O   UNL d   1      17.054  10.412 -17.667 -0.04 +0.03    -0.228    20.598
ATOM     17  O   UNL d   1      15.554  12.013 -19.013 -0.00 +0.03    -0.303    20.598
ATOM     18  H   UNL d   1      14.659  11.680 -18.809 +0.01 -0.02    +0.222    20.598
ATOM     19  O   UNL d   1      17.635  12.929 -18.055 -0.00 +0.03    -0.303    20.598
ATOM     20  H   UNL d   1      18.504  12.537 -18.259 +0.01 -0.02    +0.222    20.598
ATOM     21  O   UNL d   1      14.411   9.696 -13.423 -0.15 +0.10    -0.278    20.598
ATOM     22  P   UNL d   1      12.903   9.178 -13.364 -0.22 -0.13    +0.473    20.598
ATOM     23  O   UNL d   1      12.177   8.974 -14.651 -0.15 +0.04    -0.228    20.598
ATOM     24  O   UNL d   1      13.042   7.874 -12.462 -0.93 +0.10    -0.303    20.598
ATOM     25  H   UNL d   1      13.991   7.787 -12.191 -0.45 -0.18    +0.222    20.598
ATOM     26  O   UNL d   1      12.242  10.220 -12.341 -0.27 +0.08    -0.303    20.598
ATOM     27  H   UNL d   1      12.672  10.129 -11.466 -0.30 -0.12    +0.222    20.598
ATOM     28  O   UNL d   1      13.861  14.277 -16.436 -0.00 +0.02    -0.278    20.598
ATOM     29  P   UNL d   1      13.157  14.653 -17.814 -0.00 -0.03    +0.473    20.598
ATOM     30  O   UNL d   1      13.084  16.104 -18.121 +0.00 +0.01    -0.228    20.598
ATOM     31  O   UNL d   1      14.003  13.739 -18.819 -0.00 +0.02    -0.303    20.598
ATOM     32  H   UNL d   1      14.791  13.392 -18.340 +0.00 -0.02    +0.222    20.598
ATOM     33  O   UNL d   1      11.774  13.870 -17.707 -0.00 +0.02    -0.303    20.598
ATOM     34  H   UNL d   1      11.063  14.417 -18.121 +0.00 -0.01    +0.222    20.598
ATOM     35  O   UNL d   1      14.688  12.374 -12.292 -0.06 +0.05    -0.278    20.598
ATOM     36  P   UNL d   1      14.112  11.998 -10.853 -0.07 -0.16    +0.473    20.598
ATOM     37  O   UNL d   1      12.636  12.167 -10.684 -0.17 +0.08    -0.228    20.598
ATOM     38  O   UNL d   1      14.624  10.500 -10.678 -0.16 +0.17    -0.303    20.598
ATOM     39  H   UNL d   1      14.094   9.910 -11.256 -0.28 -0.14    +0.222    20.598
ATOM     40  O   UNL d   1      15.051  12.838  -9.881 -0.06 +0.08    -0.303    20.598
ATOM     41  H   UNL d   1      14.918  13.806  -9.993 +0.05 -0.04    +0.222    20.598
ATOM     42  O   UNL d   1      12.855  14.112 -13.744 -0.01 +0.03    -0.278    20.598
ATOM     43  P   UNL d   1      13.254  15.441 -12.957 +0.00 -0.05    +0.473    20.598
ATOM     44  O   UNL d   1      14.154  16.405 -13.650 -0.00 +0.02    -0.228    20.598
ATOM     45  O   UNL d   1      11.839  16.046 -12.553 -0.00 +0.02    -0.303    20.598
ATOM     46  H   UNL d   1      11.796  17.007 -12.734 +0.01 -0.01    +0.222    20.598
ATOM     47  O   UNL d   1      13.786  14.887 -11.550 -0.01 +0.04    -0.303    20.598
ATOM     48  H   UNL d   1      13.714  13.910 -11.540 +0.04 -0.04    +0.222    20.598
TER
ENDMDL
MODEL       53
USER    Run = 53
USER    Cluster Rank = 41
USER    Number of conformations in this cluster = 1
USER  
USER    RMSD from reference structure       = 20.681 A
USER  
USER    Estimated Free Energy of Binding    =   +3.14 kcal/mol  [=(1)+(2)+(3)-(4)]
USER    
USER    (1) Final Intermolecular Energy     =   -4.02 kcal/mol
USER        vdW + Hbond + desolv Energy     =   -3.67 kcal/mol
USER        Electrostatic Energy            =   -0.35 kcal/mol
USER    (2) Final Total Internal Energy     =  -13.48 kcal/mol
USER    (3) Torsional Free Energy           =   +7.16 kcal/mol
USER    (4) Unbound System's Energy  [=(2)] =  -13.48 kcal/mol
USER    
USER    
USER  
USER    DPF = D:/Protein_go_brrr/autodock/final/mut_Y35F/IHP/dock.dpf
USER    NEWDPF move	IHP_ideal_opt.pdbqt
USER    NEWDPF about	0.035000 0.082000 -0.065000
USER    NEWDPF tran0	-14.664169 -18.279475 4.936428
USER    NEWDPF axisangle0	0.845073 -0.532768 -0.044840 -92.442424
USER    NEWDPF quaternion0	0.610156 -0.384667 -0.032375 -0.691876
USER    NEWDPF dihe0	-0.27 104.49 41.37 80.22 26.40 -94.37 22.22 -82.32 51.96 4.13 -30.37 157.30 -15.39 -82.30 -41.34 85.16 171.40 -65.66 -11.56 -6.93 150.70 -17.79 2.17 164.94 
USER  
USER                              x       y       z    vdW   Elec        q     RMS 
ATOM      1  C   UNL d   1     -13.860 -19.797   4.750 -0.07 +0.01    +0.194    20.681
ATOM      2  C   UNL d   1     -14.184 -19.056   3.451 -0.11 +0.00    +0.194    20.681
ATOM      3  C   UNL d   1     -15.592 -18.460   3.475 -0.16 -0.02    +0.194    20.681
ATOM      4  C   UNL d   1     -15.862 -17.604   4.710 -0.26 -0.04    +0.194    20.681
ATOM      5  C   UNL d   1     -15.448 -18.259   6.021 -0.15 -0.02    +0.194    20.681
ATOM      6  C   UNL d   1     -14.063 -18.909   5.978 -0.07 +0.01    +0.194    20.681
ATOM      7  O   UNL d   1     -12.480 -20.171   4.718 -0.24 -0.02    -0.278    20.681
ATOM      8  P   UNL d   1     -12.087 -21.659   5.145 -0.01 -0.00    +0.473    20.681
ATOM      9  O   UNL d   1     -13.062 -22.709   4.743 -0.00 +0.00    -0.228    20.681
ATOM     10  O   UNL d   1     -10.638 -21.873   4.515 -0.01 +0.00    -0.303    20.681
ATOM     11  H   UNL d   1     -10.461 -22.827   4.417 +0.01 -0.00    +0.222    20.681
ATOM     12  O   UNL d   1     -11.765 -21.571   6.699 -0.01 +0.01    -0.303    20.681
ATOM     13  H   UNL d   1     -12.525 -21.248   7.233 +0.01 -0.00    +0.222    20.681
ATOM     14  O   UNL d   1     -13.240 -17.992   3.273 -0.14 -0.02    -0.278    20.681
ATOM     15  P   UNL d   1     -12.426 -17.982   1.894 -0.16 -0.02    +0.473    20.681
ATOM     16  O   UNL d   1     -12.228 -19.303   1.220 -0.05 +0.01    -0.228    20.681
ATOM     17  O   UNL d   1     -13.214 -16.937   0.986 -0.22 +0.03    -0.303    20.681
ATOM     18  H   UNL d   1     -14.160 -17.170   0.923 +0.07 -0.02    +0.222    20.681
ATOM     19  O   UNL d   1     -11.095 -17.175   2.226 -0.24 +0.04    -0.303    20.681
ATOM     20  H   UNL d   1     -10.913 -17.158   3.184 -0.47 -0.09    +0.222    20.681
ATOM     21  O   UNL d   1     -13.968 -19.752   7.124 -0.04 +0.00    -0.278    20.681
ATOM     22  P   UNL d   1     -15.154 -20.764   7.463 +0.01 -0.02    +0.473    20.681
ATOM     23  O   UNL d   1     -16.438 -20.621   6.718 -0.01 +0.02    -0.228    20.681
ATOM     24  O   UNL d   1     -14.437 -22.175   7.293 +0.00 +0.01    -0.303    20.681
ATOM     25  H   UNL d   1     -13.837 -22.122   6.506 +0.00 -0.01    +0.222    20.681
ATOM     26  O   UNL d   1     -15.249 -20.631   9.058 -0.00 +0.01    -0.303    20.681
ATOM     27  H   UNL d   1     -15.899 -19.935   9.285 +0.01 -0.01    +0.222    20.681
ATOM     28  O   UNL d   1     -15.700 -17.572   2.370 -0.14 +0.03    -0.278    20.681
ATOM     29  P   UNL d   1     -16.276 -18.088   0.977 -0.03 -0.05    +0.473    20.681
ATOM     30  O   UNL d   1     -17.656 -18.636   1.017 -0.08 +0.04    -0.228    20.681
ATOM     31  O   UNL d   1     -16.037 -16.786   0.077 -0.10 +0.02    -0.303    20.681
ATOM     32  H   UNL d   1     -15.075 -16.712  -0.118 +0.07 -0.01    +0.222    20.681
ATOM     33  O   UNL d   1     -15.125 -19.072   0.484 -0.02 +0.02    -0.303    20.681
ATOM     34  H   UNL d   1     -14.277 -18.819   0.923 +0.05 -0.01    +0.222    20.681
ATOM     35  O   UNL d   1     -15.386 -17.203   6.978 -0.18 +0.04    -0.278    20.681
ATOM     36  P   UNL d   1     -16.071 -17.373   8.409 -0.06 -0.05    +0.473    20.681
ATOM     37  O   UNL d   1     -16.690 -16.136   8.978 -0.09 +0.02    -0.228    20.681
ATOM     38  O   UNL d   1     -17.101 -18.556   8.139 -0.02 +0.05    -0.303    20.681
ATOM     39  H   UNL d   1     -17.244 -18.644   7.172 +0.05 -0.05    +0.222    20.681
ATOM     40  O   UNL d   1     -14.915 -18.059   9.260 -0.02 +0.01    -0.303    20.681
ATOM     41  H   UNL d   1     -14.405 -18.707   8.725 +0.03 -0.01    +0.222    20.681
ATOM     42  O   UNL d   1     -17.278 -17.399   4.771 -0.16 +0.18    -0.278    20.681
ATOM     43  P   UNL d   1     -18.243 -18.669   4.741 -0.06 -0.24    +0.473    20.681
ATOM     44  O   UNL d   1     -17.686 -19.942   4.205 -0.04 +0.05    -0.228    20.681
ATOM     45  O   UNL d   1     -18.745 -18.761   6.248 -0.05 +0.12    -0.303    20.681
ATOM     46  H   UNL d   1     -18.289 -19.477   6.734 +0.03 -0.05    +0.222    20.681
ATOM     47  O   UNL d   1     -19.551 -18.118   3.995 -0.04 +0.30    -0.303    20.681
ATOM     48  H   UNL d   1     -19.594 -17.144   4.097 -0.49 -0.59    +0.222    20.681
TER
ENDMDL
MODEL        3
USER    Run = 3
USER    Cluster Rank = 42
USER    Number of conformations in this cluster = 1
USER  
USER    RMSD from reference structure       = 18.918 A
USER  
USER    Estimated Free Energy of Binding    =   +3.14 kcal/mol  [=(1)+(2)+(3)-(4)]
USER    
USER    (1) Final Intermolecular Energy     =   -4.01 kcal/mol
USER        vdW + Hbond + desolv Energy     =   -3.54 kcal/mol
USER        Electrostatic Energy            =   -0.48 kcal/mol
USER    (2) Final Total Internal Energy     =  -14.15 kcal/mol
USER    (3) Torsional Free Energy           =   +7.16 kcal/mol
USER    (4) Unbound System's Energy  [=(2)] =  -14.15 kcal/mol
USER    
USER    
USER  
USER    DPF = D:/Protein_go_brrr/autodock/final/mut_Y35F/IHP/dock.dpf
USER    NEWDPF move	IHP_ideal_opt.pdbqt
USER    NEWDPF about	0.035000 0.082000 -0.065000
USER    NEWDPF tran0	-10.890413 -7.019836 17.720194
USER    NEWDPF axisangle0	0.818290 -0.306781 0.486094 84.754096
USER    NEWDPF quaternion0	0.551532 -0.206772 0.327631 0.738725
USER    NEWDPF dihe0	180.00 -33.56 -179.97 -12.84 -16.80 -143.63 -97.53 -28.17 -30.25 85.14 44.34 -140.37 90.34 -180.00 -17.93 -16.03 -91.89 -67.76 -4.65 17.15 167.82 4.33 13.63 -180.00 
USER  
USER                              x       y       z    vdW   Elec        q     RMS 
ATOM      1  C   UNL d   1      -9.713  -7.532  18.876 -0.00 -0.01    +0.194    18.918
ATOM      2  C   UNL d   1     -11.039  -7.036  19.458 +0.00 -0.01    +0.194    18.918
ATOM      3  C   UNL d   1     -11.529  -5.771  18.751 -0.01 -0.02    +0.194    18.918
ATOM      4  C   UNL d   1     -11.582  -5.913  17.232 -0.07 -0.06    +0.194    18.918
ATOM      5  C   UNL d   1     -10.323  -6.512  16.620 -0.09 -0.05    +0.194    18.918
ATOM      6  C   UNL d   1      -9.797  -7.741  17.364 -0.02 -0.02    +0.194    18.918
ATOM      7  O   UNL d   1      -9.414  -8.799  19.466 +0.00 +0.01    -0.278    18.918
ATOM      8  P   UNL d   1      -7.984  -9.000  20.149 +0.00 -0.02    +0.473    18.918
ATOM      9  O   UNL d   1      -7.989  -9.813  21.396 +0.00 +0.01    -0.228    18.918
ATOM     10  O   UNL d   1      -7.087  -9.631  18.991 -0.00 +0.01    -0.303    18.918
ATOM     11  H   UNL d   1      -7.476  -9.417  18.122 +0.02 -0.01    +0.222    18.918
ATOM     12  O   UNL d   1      -7.379  -7.537  20.278 -0.00 +0.01    -0.303    18.918
ATOM     13  H   UNL d   1      -7.006  -7.198  19.433 +0.02 -0.01    +0.222    18.918
ATOM     14  O   UNL d   1     -12.029  -8.060  19.301 +0.00 +0.02    -0.278    18.918
ATOM     15  P   UNL d   1     -13.169  -8.131  20.424 +0.00 -0.02    +0.473    18.918
ATOM     16  O   UNL d   1     -13.340  -9.442  21.126 +0.00 +0.01    -0.228    18.918
ATOM     17  O   UNL d   1     -12.807  -6.941  21.419 +0.00 +0.01    -0.303    18.918
ATOM     18  H   UNL d   1     -13.170  -6.092  21.100 +0.00 -0.01    +0.222    18.918
ATOM     19  O   UNL d   1     -14.469  -7.562  19.706 +0.00 +0.02    -0.303    18.918
ATOM     20  H   UNL d   1     -14.416  -6.598  19.575 +0.01 -0.02    +0.222    18.918
ATOM     21  O   UNL d   1      -8.468  -7.968  16.899 -0.05 +0.03    -0.278    18.918
ATOM     22  P   UNL d   1      -7.329  -6.894  17.205 -0.10 -0.06    +0.473    18.918
ATOM     23  O   UNL d   1      -7.619  -5.823  18.202 -0.09 +0.01    -0.228    18.918
ATOM     24  O   UNL d   1      -6.092  -7.828  17.570 -0.11 +0.04    -0.303    18.918
ATOM     25  H   UNL d   1      -6.173  -8.089  18.522 +0.03 -0.01    +0.222    18.918
ATOM     26  O   UNL d   1      -6.945  -6.397  15.730 +0.16 +0.11    -0.303    18.918
ATOM     27  H   UNL d   1      -7.764  -6.276  15.208 -0.37 -0.08    +0.222    18.918
ATOM     28  O   UNL d   1     -12.874  -5.548  19.156 -0.01 +0.03    -0.278    18.918
ATOM     29  P   UNL d   1     -13.253  -4.257  20.009 +0.01 -0.03    +0.473    18.918
ATOM     30  O   UNL d   1     -12.301  -3.901  21.091 -0.00 +0.01    -0.228    18.918
ATOM     31  O   UNL d   1     -13.445  -3.191  18.830 -0.01 +0.02    -0.303    18.918
ATOM     32  H   UNL d   1     -12.690  -3.277  18.203 +0.04 -0.02    +0.222    18.918
ATOM     33  O   UNL d   1     -14.752  -4.573  20.444 -0.00 +0.01    -0.303    18.918
ATOM     34  H   UNL d   1     -14.860  -5.551  20.538 +0.00 -0.01    +0.222    18.918
ATOM     35  O   UNL d   1     -10.694  -6.940  15.311 -0.10 +0.15    -0.278    18.918
ATOM     36  P   UNL d   1      -9.660  -6.821  14.102 -0.25 -0.09    +0.473    18.918
ATOM     37  O   UNL d   1      -8.963  -5.503  13.977 -0.59 +0.01    -0.228    18.918
ATOM     38  O   UNL d   1      -8.688  -8.051  14.382 -0.14 +0.02    -0.303    18.918
ATOM     39  H   UNL d   1      -7.870  -7.722  14.813 -0.45 -0.09    +0.222    18.918
ATOM     40  O   UNL d   1     -10.533  -7.297  12.861 -0.35 -0.13    -0.303    18.918
ATOM     41  H   UNL d   1     -11.435  -6.907  12.879 -0.29 -0.24    +0.222    18.918
ATOM     42  O   UNL d   1     -11.724  -4.592  16.697 -0.12 +0.09    -0.278    18.918
ATOM     43  P   UNL d   1     -10.500  -3.576  16.818 -0.14 -0.02    +0.473    18.918
ATOM     44  O   UNL d   1      -9.491  -3.840  17.881 -0.10 +0.00    -0.228    18.918
ATOM     45  O   UNL d   1      -9.905  -3.569  15.342 -0.32 -0.01    -0.303    18.918
ATOM     46  H   UNL d   1     -10.066  -4.420  14.887 +0.07 -0.03    +0.222    18.918
ATOM     47  O   UNL d   1     -11.218  -2.145  16.886 -0.21 -0.02    -0.303    18.918
ATOM     48  H   UNL d   1     -12.033  -2.218  17.426 +0.06 -0.00    +0.222    18.918
TER
ENDMDL
MODEL       44
USER    Run = 44
USER    Cluster Rank = 43
USER    Number of conformations in this cluster = 1
USER  
USER    RMSD from reference structure       = 9.789 A
USER  
USER    Estimated Free Energy of Binding    =   +3.15 kcal/mol  [=(1)+(2)+(3)-(4)]
USER    
USER    (1) Final Intermolecular Energy     =   -4.01 kcal/mol
USER        vdW + Hbond + desolv Energy     =   -4.01 kcal/mol
USER        Electrostatic Energy            =   +0.00 kcal/mol
USER    (2) Final Total Internal Energy     =  -12.70 kcal/mol
USER    (3) Torsional Free Energy           =   +7.16 kcal/mol
USER    (4) Unbound System's Energy  [=(2)] =  -12.70 kcal/mol
USER    
USER    
USER  
USER    DPF = D:/Protein_go_brrr/autodock/final/mut_Y35F/IHP/dock.dpf
USER    NEWDPF move	IHP_ideal_opt.pdbqt
USER    NEWDPF about	0.035000 0.082000 -0.065000
USER    NEWDPF tran0	-11.432894 5.435862 -4.758320
USER    NEWDPF axisangle0	-0.291256 0.770085 -0.567573 -99.852217
USER    NEWDPF quaternion0	-0.222873 0.589281 -0.434315 -0.643775
USER    NEWDPF dihe0	126.53 38.39 15.48 -104.08 7.43 -164.58 -52.17 -114.42 -94.44 34.76 135.46 125.87 160.95 -85.98 -44.58 87.59 7.68 -175.51 32.12 1.86 180.00 -15.46 -12.36 9.92 
USER  
USER                              x       y       z    vdW   Elec        q     RMS 
ATOM      1  C   UNL d   1     -11.033   3.763  -4.594 -0.09 +0.02    +0.194     9.789
ATOM      2  C   UNL d   1     -11.533   4.451  -3.323 -0.08 +0.02    +0.194     9.789
ATOM      3  C   UNL d   1     -10.912   5.838  -3.147 -0.09 +0.03    +0.194     9.789
ATOM      4  C   UNL d   1     -11.062   6.725  -4.380 -0.08 +0.03    +0.194     9.789
ATOM      5  C   UNL d   1     -10.683   6.041  -5.687 -0.10 +0.06    +0.194     9.789
ATOM      6  C   UNL d   1     -11.254   4.629  -5.835 -0.06 +0.04    +0.194     9.789
ATOM      7  O   UNL d   1     -11.783   2.560  -4.775 -0.05 -0.01    -0.278     9.789
ATOM      8  P   UNL d   1     -11.225   1.212  -4.123 -0.17 -0.02    +0.473     9.789
ATOM      9  O   UNL d   1     -11.525  -0.029  -4.887 -0.11 -0.01    -0.228     9.789
ATOM     10  O   UNL d   1      -9.662   1.483  -3.953 -0.28 +0.07    -0.303     9.789
ATOM     11  H   UNL d   1      -9.354   2.076  -4.664 +0.08 -0.03    +0.222     9.789
ATOM     12  O   UNL d   1     -11.733   1.241  -2.618 -0.22 +0.01    -0.303     9.789
ATOM     13  H   UNL d   1     -12.169   2.088  -2.374 +0.09 +0.01    +0.222     9.789
ATOM     14  O   UNL d   1     -12.957   4.595  -3.399 -0.02 -0.02    -0.278     9.789
ATOM     15  P   UNL d   1     -13.790   4.174  -2.098 -0.01 +0.03    +0.473     9.789
ATOM     16  O   UNL d   1     -13.210   3.083  -1.253 -0.09 -0.02    -0.228     9.789
ATOM     17  O   UNL d   1     -13.978   5.539  -1.299 -0.02 -0.02    -0.303     9.789
ATOM     18  H   UNL d   1     -13.174   5.763  -0.790 +0.04 +0.02    +0.222     9.789
ATOM     19  O   UNL d   1     -15.263   3.914  -2.637 -0.00 -0.02    -0.303     9.789
ATOM     20  H   UNL d   1     -15.915   3.897  -1.912 +0.01 +0.01    +0.222     9.789
ATOM     21  O   UNL d   1     -10.548   4.009  -6.908 -0.06 -0.07    -0.278     9.789
ATOM     22  P   UNL d   1      -9.075   3.447  -6.667 -0.09 +0.18    +0.473     9.789
ATOM     23  O   UNL d   1      -8.353   3.870  -5.432 -0.91 -0.13    -0.228     9.789
ATOM     24  O   UNL d   1      -9.299   1.878  -6.805 -0.19 +0.01    -0.303     9.789
ATOM     25  H   UNL d   1      -9.966   1.601  -6.127 +0.07 -0.02    +0.222     9.789
ATOM     26  O   UNL d   1      -8.359   3.803  -8.057 -0.37 -0.20    -0.303     9.789
ATOM     27  H   UNL d   1      -8.855   4.522  -8.499 +0.04 +0.15    +0.222     9.789
ATOM     28  O   UNL d   1     -11.630   6.502  -2.115 -0.05 -0.02    -0.278     9.789
ATOM     29  P   UNL d   1     -11.097   6.471  -0.615 -0.10 +0.00    +0.473     9.789
ATOM     30  O   UNL d   1      -9.764   7.089  -0.396 -0.22 +0.04    -0.228     9.789
ATOM     31  O   UNL d   1     -12.341   7.140   0.138 -0.59 -0.03    -0.303     9.789
ATOM     32  H   UNL d   1     -13.027   7.367  -0.531 +0.03 +0.01    +0.222     9.789
ATOM     33  O   UNL d   1     -11.246   4.931  -0.239 -0.16 -0.04    -0.303     9.789
ATOM     34  H   UNL d   1     -12.182   4.652  -0.393 +0.06 +0.03    +0.222     9.789
ATOM     35  O   UNL d   1     -11.257   6.836  -6.722 -0.05 -0.06    -0.278     9.789
ATOM     36  P   UNL d   1     -10.323   7.542  -7.806 -0.04 +0.16    +0.473     9.789
ATOM     37  O   UNL d   1      -9.347   6.645  -8.498 +0.05 -0.16    -0.228     9.789
ATOM     38  O   UNL d   1     -11.396   8.212  -8.774 -0.00 -0.04    -0.303     9.789
ATOM     39  H   UNL d   1     -10.956   8.467  -9.613 +0.02 +0.02    +0.222     9.789
ATOM     40  O   UNL d   1      -9.723   8.769  -6.991 -0.12 -0.09    -0.303     9.789
ATOM     41  H   UNL d   1     -10.138   8.855  -6.104 +0.03 +0.04    +0.222     9.789
ATOM     42  O   UNL d   1     -10.168   7.830  -4.209 -0.05 -0.05    -0.278     9.789
ATOM     43  P   UNL d   1     -10.756   9.232  -3.726 -0.03 -0.02    +0.473     9.789
ATOM     44  O   UNL d   1     -10.382  10.441  -4.512 -0.05 +0.03    -0.228     9.789
ATOM     45  O   UNL d   1     -12.322   8.951  -3.669 -0.00 +0.00    -0.303     9.789
ATOM     46  H   UNL d   1     -12.538   8.257  -3.015 +0.02 +0.00    +0.222     9.789
ATOM     47  O   UNL d   1     -10.376   9.273  -2.170 -0.04 +0.03    -0.303     9.789
ATOM     48  H   UNL d   1     -10.729   8.472  -1.730 +0.05 -0.01    +0.222     9.789
TER
ENDMDL
MODEL       85
USER    Run = 85
USER    Cluster Rank = 44
USER    Number of conformations in this cluster = 1
USER  
USER    RMSD from reference structure       = 21.292 A
USER  
USER    Estimated Free Energy of Binding    =   +3.18 kcal/mol  [=(1)+(2)+(3)-(4)]
USER    
USER    (1) Final Intermolecular Energy     =   -3.98 kcal/mol
USER        vdW + Hbond + desolv Energy     =   -3.22 kcal/mol
USER        Electrostatic Energy            =   -0.76 kcal/mol
USER    (2) Final Total Internal Energy     =  -13.19 kcal/mol
USER    (3) Torsional Free Energy           =   +7.16 kcal/mol
USER    (4) Unbound System's Energy  [=(2)] =  -13.19 kcal/mol
USER    
USER    
USER  
USER    DPF = D:/Protein_go_brrr/autodock/final/mut_Y35F/IHP/dock.dpf
USER    NEWDPF move	IHP_ideal_opt.pdbqt
USER    NEWDPF about	0.035000 0.082000 -0.065000
USER    NEWDPF tran0	-21.383917 -14.427184 0.822414
USER    NEWDPF axisangle0	0.378147 -0.026174 0.925375 178.222802
USER    NEWDPF quaternion0	0.378102 -0.026171 0.925264 0.015508
USER    NEWDPF dihe0	-161.50 56.17 163.84 130.84 91.16 142.66 -148.01 -77.98 16.95 45.10 158.86 124.50 172.64 85.00 -107.72 -61.01 155.10 -175.40 22.80 -28.18 -15.72 -24.82 -14.91 30.46 
USER  
USER                              x       y       z    vdW   Elec        q     RMS 
ATOM      1  C   UNL d   1     -21.732 -13.631   2.315 -0.11 -0.19    +0.194    21.292
ATOM      2  C   UNL d   1     -21.107 -12.754   1.228 -0.16 -0.14    +0.194    21.292
ATOM      3  C   UNL d   1     -19.962 -13.472   0.510 -0.17 -0.14    +0.194    21.292
ATOM      4  C   UNL d   1     -20.353 -14.851  -0.015 -0.11 -0.09    +0.194    21.292
ATOM      5  C   UNL d   1     -21.083 -15.719   1.003 -0.08 -0.12    +0.194    21.292
ATOM      6  C   UNL d   1     -22.187 -14.983   1.765 -0.10 -0.12    +0.194    21.292
ATOM      7  O   UNL d   1     -22.892 -12.962   2.815 -0.07 +0.14    -0.278    21.292
ATOM      8  P   UNL d   1     -22.770 -12.154   4.188 -0.10 -0.21    +0.473    21.292
ATOM      9  O   UNL d   1     -23.893 -12.360   5.143 -0.03 +0.06    -0.228    21.292
ATOM     10  O   UNL d   1     -21.356 -12.601   4.776 -0.25 +0.30    -0.303    21.292
ATOM     11  H   UNL d   1     -20.703 -12.653   4.053 -0.46 -0.43    +0.222    21.292
ATOM     12  O   UNL d   1     -22.491 -10.650   3.759 -0.09 +0.08    -0.303    21.292
ATOM     13  H   UNL d   1     -22.621 -10.493   2.797 +0.05 -0.05    +0.222    21.292
ATOM     14  O   UNL d   1     -22.112 -12.418   0.264 -0.04 +0.09    -0.278    21.292
ATOM     15  P   UNL d   1     -22.714 -10.936   0.343 -0.01 -0.09    +0.473    21.292
ATOM     16  O   UNL d   1     -22.978 -10.248  -0.959 -0.01 +0.03    -0.228    21.292
ATOM     17  O   UNL d   1     -24.025 -11.098   1.234 -0.01 +0.05    -0.303    21.292
ATOM     18  H   UNL d   1     -23.798 -11.319   2.157 +0.03 -0.05    +0.222    21.292
ATOM     19  O   UNL d   1     -21.743 -10.167   1.341 -0.02 +0.07    -0.303    21.292
ATOM     20  H   UNL d   1     -20.870 -10.001   0.938 +0.07 -0.06    +0.222    21.292
ATOM     21  O   UNL d   1     -22.527 -15.797   2.886 -0.09 +0.20    -0.278    21.292
ATOM     22  P   UNL d   1     -24.005 -16.381   3.020 -0.01 -0.15    +0.473    21.292
ATOM     23  O   UNL d   1     -25.085 -15.466   3.490 -0.00 +0.05    -0.228    21.292
ATOM     24  O   UNL d   1     -24.241 -17.005   1.575 -0.00 +0.06    -0.303    21.292
ATOM     25  H   UNL d   1     -23.357 -17.225   1.186 +0.01 -0.05    +0.222    21.292
ATOM     26  O   UNL d   1     -23.758 -17.691   3.910 -0.01 +0.09    -0.303    21.292
ATOM     27  H   UNL d   1     -22.870 -18.053   3.711 +0.02 -0.08    +0.222    21.292
ATOM     28  O   UNL d   1     -19.635 -12.708  -0.644 -0.10 +0.11    -0.278    21.292
ATOM     29  P   UNL d   1     -18.611 -11.493  -0.540 -0.16 -0.22    +0.473    21.292
ATOM     30  O   UNL d   1     -19.206 -10.184  -0.166 -0.20 +0.11    -0.228    21.292
ATOM     31  O   UNL d   1     -17.538 -12.117   0.469 -0.33 +0.19    -0.303    21.292
ATOM     32  H   UNL d   1     -17.749 -11.811   1.382 -0.40 -0.30    +0.222    21.292
ATOM     33  O   UNL d   1     -17.861 -11.567  -1.942 -0.10 +0.08    -0.303    21.292
ATOM     34  H   UNL d   1     -17.994 -12.467  -2.330 +0.07 -0.04    +0.222    21.292
ATOM     35  O   UNL d   1     -21.711 -16.754   0.250 -0.03 +0.08    -0.278    21.292
ATOM     36  P   UNL d   1     -21.275 -18.275   0.453 -0.02 -0.11    +0.473    21.292
ATOM     37  O   UNL d   1     -21.640 -19.205  -0.660 -0.00 +0.03    -0.228    21.292
ATOM     38  O   UNL d   1     -19.708 -18.134   0.701 -0.06 +0.08    -0.303    21.292
ATOM     39  H   UNL d   1     -19.312 -17.616  -0.033 +0.02 -0.05    +0.222    21.292
ATOM     40  O   UNL d   1     -21.862 -18.607   1.893 -0.02 +0.09    -0.303    21.292
ATOM     41  H   UNL d   1     -22.372 -17.852   2.262 +0.02 -0.08    +0.222    21.292
ATOM     42  O   UNL d   1     -19.136 -15.528  -0.349 -0.10 +0.08    -0.278    21.292
ATOM     43  P   UNL d   1     -18.432 -15.204  -1.743 -0.04 -0.07    +0.473    21.292
ATOM     44  O   UNL d   1     -18.050 -16.358  -2.604 -0.03 +0.02    -0.228    21.292
ATOM     45  O   UNL d   1     -19.455 -14.194  -2.425 -0.02 +0.04    -0.303    21.292
ATOM     46  H   UNL d   1     -19.290 -13.272  -2.142 +0.05 -0.04    +0.222    21.292
ATOM     47  O   UNL d   1     -17.233 -14.224  -1.328 -0.11 +0.05    -0.303    21.292
ATOM     48  H   UNL d   1     -17.599 -13.451  -0.850 +0.09 -0.06    +0.222    21.292
TER
ENDMDL
MODEL        1
USER    Run = 1
USER    Cluster Rank = 45
USER    Number of conformations in this cluster = 1
USER  
USER    RMSD from reference structure       = 14.784 A
USER  
USER    Estimated Free Energy of Binding    =   +3.21 kcal/mol  [=(1)+(2)+(3)-(4)]
USER    
USER    (1) Final Intermolecular Energy     =   -3.95 kcal/mol
USER        vdW + Hbond + desolv Energy     =   -3.65 kcal/mol
USER        Electrostatic Energy            =   -0.30 kcal/mol
USER    (2) Final Total Internal Energy     =  -14.07 kcal/mol
USER    (3) Torsional Free Energy           =   +7.16 kcal/mol
USER    (4) Unbound System's Energy  [=(2)] =  -14.07 kcal/mol
USER    
USER    
USER  
USER    DPF = D:/Protein_go_brrr/autodock/final/mut_Y35F/IHP/dock.dpf
USER    NEWDPF move	IHP_ideal_opt.pdbqt
USER    NEWDPF about	0.035000 0.082000 -0.065000
USER    NEWDPF tran0	16.818495 -6.489679 4.297977
USER    NEWDPF axisangle0	0.565861 -0.444091 -0.694683 137.813333
USER    NEWDPF quaternion0	0.527946 -0.414335 -0.648136 0.359888
USER    NEWDPF dihe0	-119.10 27.79 56.35 15.28 20.06 -175.38 -9.11 -104.96 -10.82 31.78 -14.99 -71.26 -149.82 155.64 153.30 -71.17 -56.68 -36.44 30.87 -12.39 -16.59 10.03 -173.66 8.37 
USER  
USER                              x       y       z    vdW   Elec        q     RMS 
ATOM      1  C   UNL d   1      17.086  -5.375   3.006 -0.10 +0.03    +0.194    14.784
ATOM      2  C   UNL d   1      18.184  -5.430   4.069 -0.04 +0.02    +0.194    14.784
ATOM      3  C   UNL d   1      17.602  -5.483   5.483 -0.03 +0.03    +0.194    14.784
ATOM      4  C   UNL d   1      16.566  -6.590   5.665 -0.08 +0.07    +0.194    14.784
ATOM      5  C   UNL d   1      15.516  -6.645   4.563 -0.15 +0.08    +0.194    14.784
ATOM      6  C   UNL d   1      16.093  -6.529   3.151 -0.11 +0.02    +0.194    14.784
ATOM      7  O   UNL d   1      17.702  -5.501   1.722 -0.07 -0.04    -0.278    14.784
ATOM      8  P   UNL d   1      18.130  -4.169   0.951 -0.18 +0.09    +0.473    14.784
ATOM      9  O   UNL d   1      17.165  -3.698  -0.080 -0.33 -0.06    -0.228    14.784
ATOM     10  O   UNL d   1      18.371  -3.108   2.118 -0.20 -0.04    -0.303    14.784
ATOM     11  H   UNL d   1      19.268  -3.220   2.482 +0.06 +0.03    +0.222    14.784
ATOM     12  O   UNL d   1      19.610  -4.445   0.442 -0.11 -0.07    -0.303    14.784
ATOM     13  H   UNL d   1      20.044  -5.196   0.906 +0.05 +0.03    +0.222    14.784
ATOM     14  O   UNL d   1      18.980  -6.603   3.858 -0.00 -0.03    -0.278    14.784
ATOM     15  P   UNL d   1      20.534  -6.368   3.551 +0.00 +0.03    +0.473    14.784
ATOM     16  O   UNL d   1      21.204  -7.373   2.667 -0.00 -0.01    -0.228    14.784
ATOM     17  O   UNL d   1      20.593  -4.889   2.961 -0.02 -0.03    -0.303    14.784
ATOM     18  H   UNL d   1      19.835  -4.716   2.371 +0.04 +0.03    +0.222    14.784
ATOM     19  O   UNL d   1      21.195  -6.167   4.984 -0.00 -0.02    -0.303    14.784
ATOM     20  H   UNL d   1      20.664  -5.573   5.546 +0.00 +0.02    +0.222    14.784
ATOM     21  O   UNL d   1      14.999  -6.252   2.280 -0.17 -0.02    -0.278    14.784
ATOM     22  P   UNL d   1      14.643  -7.273   1.107 -0.14 -0.01    +0.473    14.784
ATOM     23  O   UNL d   1      13.542  -6.912   0.168 -0.32 +0.01    -0.228    14.784
ATOM     24  O   UNL d   1      16.063  -7.489   0.420 -0.05 -0.03    -0.303    14.784
ATOM     25  H   UNL d   1      16.486  -6.600   0.303 +0.08 +0.04    +0.222    14.784
ATOM     26  O   UNL d   1      14.455  -8.645   1.915 -0.14 +0.10    -0.303    14.784
ATOM     27  H   UNL d   1      14.438  -8.453   2.875 -0.21 -0.12    +0.222    14.784
ATOM     28  O   UNL d   1      18.663  -5.810   6.371 -0.00 -0.04    -0.278    14.784
ATOM     29  P   UNL d   1      19.054  -4.819   7.556 +0.01 +0.05    +0.473    14.784
ATOM     30  O   UNL d   1      20.193  -3.907   7.278 -0.00 -0.02    -0.228    14.784
ATOM     31  O   UNL d   1      17.631  -4.141   7.834 -0.00 -0.04    -0.303    14.784
ATOM     32  H   UNL d   1      16.940  -4.842   7.811 +0.02 +0.05    +0.222    14.784
ATOM     33  O   UNL d   1      19.215  -5.817   8.786 +0.00 -0.03    -0.303    14.784
ATOM     34  H   UNL d   1      18.448  -6.441   8.796 +0.01 +0.03    +0.222    14.784
ATOM     35  O   UNL d   1      14.914  -7.933   4.666 -0.30 -0.14    -0.278    14.784
ATOM     36  P   UNL d   1      15.816  -9.226   4.907 -0.07 +0.06    +0.473    14.784
ATOM     37  O   UNL d   1      17.288  -9.029   4.726 -0.02 -0.02    -0.228    14.784
ATOM     38  O   UNL d   1      15.389  -9.652   6.381 -0.11 -0.16    -0.303    14.784
ATOM     39  H   UNL d   1      15.874  -9.097   7.029 +0.02 +0.13    +0.222    14.784
ATOM     40  O   UNL d   1      15.114 -10.309   3.977 -0.05 +0.14    -0.303    14.784
ATOM     41  H   UNL d   1      14.253  -9.987   3.630 -0.55 -0.33    +0.222    14.784
ATOM     42  O   UNL d   1      15.877  -6.316   6.890 -0.26 -0.16    -0.278    14.784
ATOM     43  P   UNL d   1      16.248  -7.163   8.190 -0.04 +0.20    +0.473    14.784
ATOM     44  O   UNL d   1      17.440  -8.052   8.113 -0.01 -0.05    -0.228    14.784
ATOM     45  O   UNL d   1      16.340  -6.047   9.320 -0.01 -0.07    -0.303    14.784
ATOM     46  H   UNL d   1      17.238  -5.664   9.372 +0.01 +0.04    +0.222    14.784
ATOM     47  O   UNL d   1      14.867  -7.888   8.560 -0.09 -0.26    -0.303    14.784
ATOM     48  H   UNL d   1      14.936  -8.842   8.346 +0.01 +0.18    +0.222    14.784
TER
ENDMDL
MODEL       19
USER    Run = 19
USER    Cluster Rank = 46
USER    Number of conformations in this cluster = 1
USER  
USER    RMSD from reference structure       = 11.762 A
USER  
USER    Estimated Free Energy of Binding    =   +3.21 kcal/mol  [=(1)+(2)+(3)-(4)]
USER    
USER    (1) Final Intermolecular Energy     =   -3.95 kcal/mol
USER        vdW + Hbond + desolv Energy     =   -3.76 kcal/mol
USER        Electrostatic Energy            =   -0.19 kcal/mol
USER    (2) Final Total Internal Energy     =  -14.46 kcal/mol
USER    (3) Torsional Free Energy           =   +7.16 kcal/mol
USER    (4) Unbound System's Energy  [=(2)] =  -14.46 kcal/mol
USER    
USER    
USER  
USER    DPF = D:/Protein_go_brrr/autodock/final/mut_Y35F/IHP/dock.dpf
USER    NEWDPF move	IHP_ideal_opt.pdbqt
USER    NEWDPF about	0.035000 0.082000 -0.065000
USER    NEWDPF tran0	-10.487609 11.043831 -0.260291
USER    NEWDPF axisangle0	0.194968 0.886565 0.419511 87.601852
USER    NEWDPF quaternion0	0.134948 0.613640 0.290367 0.721749
USER    NEWDPF dihe0	-141.42 -12.03 134.31 18.48 21.09 180.00 -30.42 -140.05 153.30 -30.50 25.47 -176.52 63.44 34.30 176.10 -48.87 38.88 146.47 -12.76 -25.67 -17.08 9.37 -23.43 -7.27 
USER  
USER                              x       y       z    vdW   Elec        q     RMS 
ATOM      1  C   UNL d   1     -11.547  10.456   0.971 -0.07 -0.02    +0.194    11.762
ATOM      2  C   UNL d   1     -11.817   9.930  -0.440 -0.04 -0.02    +0.194    11.762
ATOM      3  C   UNL d   1     -11.723  11.042  -1.487 -0.00 -0.02    +0.194    11.762
ATOM      4  C   UNL d   1     -10.421  11.835  -1.406 -0.01 -0.03    +0.194    11.762
ATOM      5  C   UNL d   1     -10.053  12.282   0.003 -0.04 -0.03    +0.194    11.762
ATOM      6  C   UNL d   1     -10.207  11.187   1.060 -0.09 -0.02    +0.194    11.762
ATOM      7  O   UNL d   1     -11.484   9.338   1.859 -0.03 +0.05    -0.278    11.762
ATOM      8  P   UNL d   1     -12.252   9.434   3.257 +0.01 +0.02    +0.473    11.762
ATOM      9  O   UNL d   1     -13.379   8.476   3.424 -0.10 -0.03    -0.228    11.762
ATOM     10  O   UNL d   1     -11.100   9.245   4.345 -0.12 -0.05    -0.303    11.762
ATOM     11  H   UNL d   1     -10.441   9.958   4.250 +0.08 +0.01    +0.222    11.762
ATOM     12  O   UNL d   1     -12.617  10.971   3.422 -0.04 -0.01    -0.303    11.762
ATOM     13  H   UNL d   1     -11.830  11.560   3.388 +0.05 +0.00    +0.222    11.762
ATOM     14  O   UNL d   1     -10.849   8.922  -0.756 -0.07 +0.03    -0.278    11.762
ATOM     15  P   UNL d   1     -11.365   7.406  -0.747 -0.07 -0.02    +0.473    11.762
ATOM     16  O   UNL d   1     -11.903   6.872  -2.037 -0.05 -0.01    -0.228    11.762
ATOM     17  O   UNL d   1     -10.117   6.575  -0.207 -0.18 +0.04    -0.303    11.762
ATOM     18  H   UNL d   1      -9.651   7.060   0.500 -0.38 -0.13    +0.222    11.762
ATOM     19  O   UNL d   1     -12.358   7.332   0.493 -0.55 -0.03    -0.303    11.762
ATOM     20  H   UNL d   1     -12.011   7.821   1.263 -0.22 -0.00    +0.222    11.762
ATOM     21  O   UNL d   1     -10.166  11.832   2.331 -0.36 +0.01    -0.278    11.762
ATOM     22  P   UNL d   1      -9.023  11.450   3.376 -0.04 +0.01    +0.473    11.762
ATOM     23  O   UNL d   1      -9.303  11.642   4.829 -0.32 -0.00    -0.228    11.762
ATOM     24  O   UNL d   1      -8.682   9.954   2.954 -0.25 +0.04    -0.303    11.762
ATOM     25  H   UNL d   1      -9.536   9.471   2.814 -0.26 -0.08    +0.222    11.762
ATOM     26  O   UNL d   1      -7.765  12.254   2.791 -0.47 +0.01    -0.303    11.762
ATOM     27  H   UNL d   1      -8.060  12.811   2.042 +0.10 -0.01    +0.222    11.762
ATOM     28  O   UNL d   1     -11.709  10.424  -2.768 -0.00 +0.02    -0.278    11.762
ATOM     29  P   UNL d   1     -12.847  10.754  -3.832 +0.01 -0.02    +0.473    11.762
ATOM     30  O   UNL d   1     -14.170  10.132  -3.569 -0.00 +0.00    -0.228    11.762
ATOM     31  O   UNL d   1     -12.782  12.353  -3.824 +0.00 +0.02    -0.303    11.762
ATOM     32  H   UNL d   1     -11.902  12.630  -3.478 +0.01 -0.02    +0.222    11.762
ATOM     33  O   UNL d   1     -12.136  10.380  -5.207 +0.00 +0.01    -0.303    11.762
ATOM     34  H   UNL d   1     -11.554  11.131  -5.482 +0.02 -0.02    +0.222    11.762
ATOM     35  O   UNL d   1      -8.670  12.625  -0.048 -0.05 +0.06    -0.278    11.762
ATOM     36  P   UNL d   1      -8.217  14.153   0.008 -0.05 -0.10    +0.473    11.762
ATOM     37  O   UNL d   1      -8.119  14.747   1.377 -0.15 +0.04    -0.228    11.762
ATOM     38  O   UNL d   1      -6.838  14.114  -0.789 -0.12 +0.11    -0.303    11.762
ATOM     39  H   UNL d   1      -7.022  14.160  -1.752 +0.07 -0.10    +0.222    11.762
ATOM     40  O   UNL d   1      -9.226  14.844  -1.009 -0.01 +0.06    -0.303    11.762
ATOM     41  H   UNL d   1      -9.020  14.613  -1.941 +0.03 -0.05    +0.222    11.762
ATOM     42  O   UNL d   1     -10.608  13.020  -2.188 -0.00 +0.04    -0.278    11.762
ATOM     43  P   UNL d   1      -9.670  13.263  -3.456 +0.01 -0.12    +0.473    11.762
ATOM     44  O   UNL d   1      -9.695  14.615  -4.079 -0.00 +0.05    -0.228    11.762
ATOM     45  O   UNL d   1      -8.238  12.819  -2.921 -0.06 +0.14    -0.303    11.762
ATOM     46  H   UNL d   1      -8.045  13.213  -2.047 +0.06 -0.09    +0.222    11.762
ATOM     47  O   UNL d   1     -10.046  12.046  -4.428 -0.02 +0.07    -0.303    11.762
ATOM     48  H   UNL d   1     -10.759  11.513  -4.018 +0.03 -0.03    +0.222    11.762
TER
ENDMDL
MODEL       20
USER    Run = 20
USER    Cluster Rank = 47
USER    Number of conformations in this cluster = 1
USER  
USER    RMSD from reference structure       = 13.959 A
USER  
USER    Estimated Free Energy of Binding    =   +3.22 kcal/mol  [=(1)+(2)+(3)-(4)]
USER    
USER    (1) Final Intermolecular Energy     =   -3.94 kcal/mol
USER        vdW + Hbond + desolv Energy     =   -3.83 kcal/mol
USER        Electrostatic Energy            =   -0.11 kcal/mol
USER    (2) Final Total Internal Energy     =  -13.57 kcal/mol
USER    (3) Torsional Free Energy           =   +7.16 kcal/mol
USER    (4) Unbound System's Energy  [=(2)] =  -13.57 kcal/mol
USER    
USER    
USER  
USER    DPF = D:/Protein_go_brrr/autodock/final/mut_Y35F/IHP/dock.dpf
USER    NEWDPF move	IHP_ideal_opt.pdbqt
USER    NEWDPF about	0.035000 0.082000 -0.065000
USER    NEWDPF tran0	14.158601 -10.928272 -0.051653
USER    NEWDPF axisangle0	0.668338 -0.258611 -0.697456 152.633076
USER    NEWDPF quaternion0	0.649369 -0.251271 -0.677660 0.236558
USER    NEWDPF dihe0	-122.37 33.45 -9.98 48.19 109.92 -132.14 1.09 -86.15 -15.06 106.61 33.48 -162.67 -141.99 31.44 98.32 102.15 -27.14 157.73 28.98 -10.18 -33.26 -27.29 147.38 -5.09 
USER  
USER                              x       y       z    vdW   Elec        q     RMS 
ATOM      1  C   UNL d   1      14.075  -9.747  -1.309 -0.14 -0.01    +0.194    13.959
ATOM      2  C   UNL d   1      14.932  -9.366  -0.100 -0.09 -0.01    +0.194    13.959
ATOM      3  C   UNL d   1      14.251  -9.741   1.218 -0.07 -0.05    +0.194    13.959
ATOM      4  C   UNL d   1      13.797 -11.197   1.267 -0.13 -0.06    +0.194    13.959
ATOM      5  C   UNL d   1      13.036 -11.653   0.029 -0.20 -0.04    +0.194    13.959
ATOM      6  C   UNL d   1      13.686 -11.225  -1.289 -0.15 -0.04    +0.194    13.959
ATOM      7  O   UNL d   1      14.848  -9.525  -2.491 -0.05 -0.02    -0.278    13.959
ATOM      8  P   UNL d   1      14.707  -8.120  -3.238 -0.08 +0.20    +0.473    13.959
ATOM      9  O   UNL d   1      13.654  -8.067  -4.289 -0.16 -0.05    -0.228    13.959
ATOM     10  O   UNL d   1      14.468  -7.076  -2.056 -0.15 -0.11    -0.303    13.959
ATOM     11  H   UNL d   1      15.321  -6.857  -1.637 +0.08 +0.10    +0.222    13.959
ATOM     12  O   UNL d   1      16.179  -7.756  -3.712 -0.56 -0.40    -0.303    13.959
ATOM     13  H   UNL d   1      16.867  -8.331  -3.310 +0.03 +0.17    +0.222    13.959
ATOM     14  O   UNL d   1      16.184 -10.058  -0.179 -0.01 +0.00    -0.278    13.959
ATOM     15  P   UNL d   1      17.503  -9.149  -0.212 +0.01 +0.04    +0.473    13.959
ATOM     16  O   UNL d   1      18.077  -8.751   1.112 -0.01 -0.01    -0.228    13.959
ATOM     17  O   UNL d   1      18.526  -9.984  -1.103 +0.00 -0.03    -0.303    13.959
ATOM     18  H   UNL d   1      19.219 -10.395  -0.551 +0.00 +0.01    +0.222    13.959
ATOM     19  O   UNL d   1      17.134  -7.949  -1.189 -0.05 -0.09    -0.303    13.959
ATOM     20  H   UNL d   1      16.305  -8.120  -1.673 +0.05 +0.08    +0.222    13.959
ATOM     21  O   UNL d   1      12.709 -11.414  -2.310 -0.21 +0.12    -0.278    13.959
ATOM     22  P   UNL d   1      13.128 -12.095  -3.691 -0.09 -0.27    +0.473    13.959
ATOM     23  O   UNL d   1      12.319 -13.247  -4.183 -0.13 +0.24    -0.228    13.959
ATOM     24  O   UNL d   1      13.171 -10.842  -4.672 -0.11 +0.14    -0.303    13.959
ATOM     25  H   UNL d   1      13.630 -10.099  -4.203 +0.06 -0.04    +0.222    13.959
ATOM     26  O   UNL d   1      14.687 -12.382  -3.452 -0.02 +0.06    -0.303    13.959
ATOM     27  H   UNL d   1      14.797 -12.893  -2.624 +0.03 -0.04    +0.222    13.959
ATOM     28  O   UNL d   1      15.218  -9.611   2.252 -0.09 +0.08    -0.278    13.959
ATOM     29  P   UNL d   1      15.507  -8.190   2.910 -0.08 -0.05    +0.473    13.959
ATOM     30  O   UNL d   1      14.482  -7.709   3.873 -0.19 +0.01    -0.228    13.959
ATOM     31  O   UNL d   1      16.980  -8.441   3.481 -0.02 -0.01    -0.303    13.959
ATOM     32  H   UNL d   1      17.547  -8.780   2.751 +0.02 +0.01    +0.222    13.959
ATOM     33  O   UNL d   1      15.776  -7.279   1.632 -0.06 -0.01    -0.303    13.959
ATOM     34  H   UNL d   1      16.120  -7.846   0.900 +0.07 +0.01    +0.222    13.959
ATOM     35  O   UNL d   1      13.058 -13.079   0.064 -0.60 +0.04    -0.278    13.959
ATOM     36  P   UNL d   1      14.333 -13.877  -0.467 -0.01 -0.07    +0.473    13.959
ATOM     37  O   UNL d   1      15.587 -13.073  -0.603 -0.01 +0.02    -0.228    13.959
ATOM     38  O   UNL d   1      14.431 -15.070   0.583 -0.00 +0.04    -0.303    13.959
ATOM     39  H   UNL d   1      14.935 -14.766   1.368 +0.01 -0.02    +0.222    13.959
ATOM     40  O   UNL d   1      13.774 -14.572  -1.784 -0.02 +0.07    -0.303    13.959
ATOM     41  H   UNL d   1      13.528 -13.910  -2.469 +0.04 -0.08    +0.222    13.959
ATOM     42  O   UNL d   1      12.902 -11.315   2.378 -0.08 +0.18    -0.278    13.959
ATOM     43  P   UNL d   1      13.310 -12.253   3.602 -0.01 -0.24    +0.473    13.959
ATOM     44  O   UNL d   1      12.212 -12.785   4.456 -0.11 +0.09    -0.228    13.959
ATOM     45  O   UNL d   1      14.193 -13.377   2.901 -0.02 +0.06    -0.303    13.959
ATOM     46  H   UNL d   1      13.818 -13.638   2.036 +0.04 -0.04    +0.222    13.959
ATOM     47  O   UNL d   1      14.426 -11.392   4.366 -0.06 +0.15    -0.303    13.959
ATOM     48  H   UNL d   1      14.377 -10.461   4.066 -0.52 -0.23    +0.222    13.959
TER
ENDMDL
MODEL       55
USER    Run = 55
USER    Cluster Rank = 48
USER    Number of conformations in this cluster = 1
USER  
USER    RMSD from reference structure       = 18.454 A
USER  
USER    Estimated Free Energy of Binding    =   +3.23 kcal/mol  [=(1)+(2)+(3)-(4)]
USER    
USER    (1) Final Intermolecular Energy     =   -3.93 kcal/mol
USER        vdW + Hbond + desolv Energy     =   -3.83 kcal/mol
USER        Electrostatic Energy            =   -0.10 kcal/mol
USER    (2) Final Total Internal Energy     =  -13.78 kcal/mol
USER    (3) Torsional Free Energy           =   +7.16 kcal/mol
USER    (4) Unbound System's Energy  [=(2)] =  -13.78 kcal/mol
USER    
USER    
USER  
USER    DPF = D:/Protein_go_brrr/autodock/final/mut_Y35F/IHP/dock.dpf
USER    NEWDPF move	IHP_ideal_opt.pdbqt
USER    NEWDPF about	0.035000 0.082000 -0.065000
USER    NEWDPF tran0	-3.731817 20.369474 5.500589
USER    NEWDPF axisangle0	0.265968 0.321821 -0.908676 -163.208632
USER    NEWDPF quaternion0	0.263118 0.318372 -0.898938 -0.146009
USER    NEWDPF dihe0	117.90 51.34 125.21 -58.72 1.07 -88.18 -114.78 26.37 119.49 0.51 66.25 180.00 144.29 90.00 -0.71 48.35 -116.12 -162.98 37.61 -12.23 -63.51 160.87 135.80 -39.11 
USER  
USER                              x       y       z    vdW   Elec        q     RMS 
ATOM      1  C   UNL d   1      -5.440  20.407   5.753 -0.07 -0.09    +0.194    18.454
ATOM      2  C   UNL d   1      -4.624  21.372   6.614 -0.08 -0.07    +0.194    18.454
ATOM      3  C   UNL d   1      -3.361  20.708   7.168 -0.11 -0.07    +0.194    18.454
ATOM      4  C   UNL d   1      -2.513  20.037   6.090 -0.16 -0.06    +0.194    18.454
ATOM      5  C   UNL d   1      -3.307  19.154   5.135 -0.23 -0.06    +0.194    18.454
ATOM      6  C   UNL d   1      -4.601  19.795   4.630 -0.16 -0.07    +0.194    18.454
ATOM      7  O   UNL d   1      -6.500  21.145   5.138 -0.07 +0.10    -0.278    18.454
ATOM      8  P   UNL d   1      -7.850  21.363   5.963 -0.07 -0.20    +0.473    18.454
ATOM      9  O   UNL d   1      -9.020  21.800   5.154 -0.03 +0.07    -0.228    18.454
ATOM     10  O   UNL d   1      -8.083  19.967   6.700 -0.20 +0.25    -0.303    18.454
ATOM     11  H   UNL d   1      -7.856  19.236   6.095 -0.52 -0.22    +0.222    18.454
ATOM     12  O   UNL d   1      -7.448  22.313   7.171 -0.03 +0.12    -0.303    18.454
ATOM     13  H   UNL d   1      -6.522  22.640   7.113 +0.03 -0.07    +0.222    18.454
ATOM     14  O   UNL d   1      -4.235  22.497   5.816 -0.01 +0.06    -0.278    18.454
ATOM     15  P   UNL d   1      -4.759  23.931   6.298 +0.00 -0.09    +0.473    18.454
ATOM     16  O   UNL d   1      -3.841  25.092   6.071 -0.00 +0.03    -0.228    18.454
ATOM     17  O   UNL d   1      -6.161  24.100   5.561 +0.00 +0.05    -0.303    18.454
ATOM     18  H   UNL d   1      -6.585  23.233   5.409 +0.01 -0.05    +0.222    18.454
ATOM     19  O   UNL d   1      -5.214  23.702   7.804 +0.00 +0.07    -0.303    18.454
ATOM     20  H   UNL d   1      -6.165  23.881   7.925 +0.01 -0.05    +0.222    18.454
ATOM     21  O   UNL d   1      -5.378  18.751   4.048 -0.18 +0.12    -0.278    18.454
ATOM     22  P   UNL d   1      -6.630  19.114   3.128 -0.11 -0.15    +0.473    18.454
ATOM     23  O   UNL d   1      -6.594  20.393   2.362 -0.03 +0.05    -0.228    18.454
ATOM     24  O   UNL d   1      -6.768  17.804   2.235 -0.13 +0.08    -0.303    18.454
ATOM     25  H   UNL d   1      -5.957  17.731   1.669 +0.08 -0.06    +0.222    18.454
ATOM     26  O   UNL d   1      -7.849  18.944   4.155 -0.28 +0.13    -0.303    18.454
ATOM     27  H   UNL d   1      -8.095  19.822   4.511 -0.00 -0.09    +0.222    18.454
ATOM     28  O   UNL d   1      -2.540  21.734   7.710 -0.02 +0.08    -0.278    18.454
ATOM     29  P   UNL d   1      -1.485  22.492   6.788 +0.01 -0.10    +0.473    18.454
ATOM     30  O   UNL d   1      -1.765  22.452   5.330 -0.01 +0.04    -0.228    18.454
ATOM     31  O   UNL d   1      -1.485  23.930   7.489 -0.00 +0.05    -0.303    18.454
ATOM     32  H   UNL d   1      -2.385  24.321   7.404 +0.00 -0.04    +0.222    18.454
ATOM     33  O   UNL d   1      -0.105  21.863   7.274 -0.04 +0.08    -0.303    18.454
ATOM     34  H   UNL d   1       0.057  21.024   6.778 +0.08 -0.06    +0.222    18.454
ATOM     35  O   UNL d   1      -2.465  18.957   4.001 -0.15 +0.06    -0.278    18.454
ATOM     36  P   UNL d   1      -2.587  19.916   2.733 -0.03 -0.09    +0.473    18.454
ATOM     37  O   UNL d   1      -3.817  19.734   1.902 -0.05 +0.05    -0.228    18.454
ATOM     38  O   UNL d   1      -2.454  21.356   3.399 -0.01 +0.05    -0.303    18.454
ATOM     39  H   UNL d   1      -1.671  21.365   3.991 +0.04 -0.04    +0.222    18.454
ATOM     40  O   UNL d   1      -1.188  19.700   2.008 -0.04 +0.06    -0.303    18.454
ATOM     41  H   UNL d   1      -0.446  19.658   2.652 +0.09 -0.04    +0.222    18.454
ATOM     42  O   UNL d   1      -1.577  19.191   6.766 -0.20 +0.11    -0.278    18.454
ATOM     43  P   UNL d   1      -0.156  18.920   6.093 -0.22 -0.15    +0.473    18.454
ATOM     44  O   UNL d   1       0.167  17.517   5.713 -0.45 +0.07    -0.228    18.454
ATOM     45  O   UNL d   1      -0.147  19.943   4.874 -0.13 +0.06    -0.303    18.454
ATOM     46  H   UNL d   1      -1.013  20.386   4.772 +0.08 -0.05    +0.222    18.454
ATOM     47  O   UNL d   1       0.869  19.616   7.110 -0.53 +0.11    -0.303    18.454
ATOM     48  H   UNL d   1       0.367  20.025   7.845 +0.09 -0.10    +0.222    18.454
TER
ENDMDL
MODEL       80
USER    Run = 80
USER    Cluster Rank = 49
USER    Number of conformations in this cluster = 1
USER  
USER    RMSD from reference structure       = 15.343 A
USER  
USER    Estimated Free Energy of Binding    =   +3.25 kcal/mol  [=(1)+(2)+(3)-(4)]
USER    
USER    (1) Final Intermolecular Energy     =   -3.91 kcal/mol
USER        vdW + Hbond + desolv Energy     =   -3.93 kcal/mol
USER        Electrostatic Energy            =   +0.01 kcal/mol
USER    (2) Final Total Internal Energy     =  -14.73 kcal/mol
USER    (3) Torsional Free Energy           =   +7.16 kcal/mol
USER    (4) Unbound System's Energy  [=(2)] =  -14.73 kcal/mol
USER    
USER    
USER  
USER    DPF = D:/Protein_go_brrr/autodock/final/mut_Y35F/IHP/dock.dpf
USER    NEWDPF move	IHP_ideal_opt.pdbqt
USER    NEWDPF about	0.035000 0.082000 -0.065000
USER    NEWDPF tran0	-2.858265 -11.936075 -14.144762
USER    NEWDPF axisangle0	0.289506 -0.073612 0.954341 -148.144484
USER    NEWDPF quaternion0	0.278392 -0.070786 0.917703 -0.274425
USER    NEWDPF dihe0	179.95 -27.84 64.73 92.56 18.30 128.62 -46.53 -19.04 -41.10 54.78 13.55 -113.93 48.18 -75.06 -174.28 -180.00 -139.59 -22.80 -144.50 -17.02 19.05 -23.05 -60.80 141.00 
USER  
USER                              x       y       z    vdW   Elec        q     RMS 
ATOM      1  C   UNL d   1      -2.873 -10.833 -12.816 -0.15 -0.03    +0.194    15.343
ATOM      2  C   UNL d   1      -1.744 -10.633 -13.828 -0.18 -0.01    +0.194    15.343
ATOM      3  C   UNL d   1      -1.121 -11.965 -14.253 -0.16 -0.01    +0.194    15.343
ATOM      4  C   UNL d   1      -2.151 -12.985 -14.731 -0.09 +0.00    +0.194    15.343
ATOM      5  C   UNL d   1      -3.353 -13.133 -13.807 -0.17 +0.00    +0.194    15.343
ATOM      6  C   UNL d   1      -3.938 -11.800 -13.333 -0.19 -0.01    +0.194    15.343
ATOM      7  O   UNL d   1      -3.510  -9.571 -12.604 -0.14 +0.01    -0.278    15.343
ATOM      8  P   UNL d   1      -4.786  -9.206 -13.493 -0.03 -0.02    +0.473    15.343
ATOM      9  O   UNL d   1      -6.100  -9.414 -12.826 -0.10 +0.02    -0.228    15.343
ATOM     10  O   UNL d   1      -4.535  -7.692 -13.928 -0.03 +0.00    -0.303    15.343
ATOM     11  H   UNL d   1      -3.583  -7.489 -13.870 +0.06 -0.00    +0.222    15.343
ATOM     12  O   UNL d   1      -4.573  -9.986 -14.861 -0.01 +0.01    -0.303    15.343
ATOM     13  H   UNL d   1      -3.872  -9.588 -15.426 +0.02 -0.00    +0.222    15.343
ATOM     14  O   UNL d   1      -2.270  -9.983 -14.992 -0.03 +0.00    -0.278    15.343
ATOM     15  P   UNL d   1      -1.725  -8.509 -15.297 -0.00 +0.01    +0.473    15.343
ATOM     16  O   UNL d   1      -1.096  -7.775 -14.154 -0.09 -0.01    -0.228    15.343
ATOM     17  O   UNL d   1      -0.730  -8.709 -16.524 -0.00 -0.01    -0.303    15.343
ATOM     18  H   UNL d   1      -0.306  -9.588 -16.494 +0.03 +0.01    +0.222    15.343
ATOM     19  O   UNL d   1      -2.949  -7.770 -15.996 -0.00 -0.00    -0.303    15.343
ATOM     20  H   UNL d   1      -3.805  -8.086 -15.651 +0.02 -0.00    +0.222    15.343
ATOM     21  O   UNL d   1      -4.802 -12.096 -12.238 -0.25 +0.05    -0.278    15.343
ATOM     22  P   UNL d   1      -6.300 -12.568 -12.516 -0.17 -0.08    +0.473    15.343
ATOM     23  O   UNL d   1      -7.367 -12.117 -11.577 -0.25 +0.07    -0.228    15.343
ATOM     24  O   UNL d   1      -6.507 -12.119 -14.028 -0.04 +0.01    -0.303    15.343
ATOM     25  H   UNL d   1      -6.194 -11.183 -14.118 +0.06 -0.01    +0.222    15.343
ATOM     26  O   UNL d   1      -6.118 -14.154 -12.664 -0.23 +0.03    -0.303    15.343
ATOM     27  H   UNL d   1      -5.347 -14.338 -13.238 +0.07 +0.00    +0.222    15.343
ATOM     28  O   UNL d   1      -0.292 -11.710 -15.379 -0.05 -0.00    -0.278    15.343
ATOM     29  P   UNL d   1       1.228 -11.278 -15.178 -0.05 +0.03    +0.473    15.343
ATOM     30  O   UNL d   1       2.142 -11.610 -16.301 -0.08 -0.00    -0.228    15.343
ATOM     31  O   UNL d   1       1.035  -9.728 -14.832 -0.63 -0.05    -0.303    15.343
ATOM     32  H   UNL d   1       0.070  -9.539 -14.768 +0.06 +0.02    +0.222    15.343
ATOM     33  O   UNL d   1       1.571 -11.915 -13.759 -0.32 +0.01    -0.303    15.343
ATOM     34  H   UNL d   1       1.154 -12.809 -13.699 +0.04 -0.03    +0.222    15.343
ATOM     35  O   UNL d   1      -4.360 -13.781 -14.582 -0.10 -0.02    -0.278    15.343
ATOM     36  P   UNL d   1      -4.191 -15.310 -15.002 -0.13 +0.10    +0.473    15.343
ATOM     37  O   UNL d   1      -3.607 -15.546 -16.358 -0.06 -0.05    -0.228    15.343
ATOM     38  O   UNL d   1      -3.314 -15.883 -13.803 -0.20 -0.09    -0.303    15.343
ATOM     39  H   UNL d   1      -2.418 -16.103 -14.137 +0.05 +0.06    +0.222    15.343
ATOM     40  O   UNL d   1      -5.643 -15.900 -14.730 -0.14 -0.09    -0.303    15.343
ATOM     41  H   UNL d   1      -6.305 -15.187 -14.588 +0.06 +0.04    +0.222    15.343
ATOM     42  O   UNL d   1      -1.491 -14.254 -14.769 -0.07 -0.02    -0.278    15.343
ATOM     43  P   UNL d   1      -0.301 -14.536 -13.744 -0.07 +0.01    +0.473    15.343
ATOM     44  O   UNL d   1      -0.268 -13.729 -12.492 -0.16 +0.03    -0.228    15.343
ATOM     45  O   UNL d   1      -0.412 -16.105 -13.503 -0.10 -0.03    -0.303    15.343
ATOM     46  H   UNL d   1      -1.285 -16.350 -13.137 +0.07 +0.06    +0.222    15.343
ATOM     47  O   UNL d   1       1.007 -14.439 -14.665 -0.03 +0.01    -0.303    15.343
ATOM     48  H   UNL d   1       1.100 -13.523 -14.998 +0.05 -0.01    +0.222    15.343
TER
ENDMDL
MODEL       41
USER    Run = 41
USER    Cluster Rank = 50
USER    Number of conformations in this cluster = 1
USER  
USER    RMSD from reference structure       = 18.547 A
USER  
USER    Estimated Free Energy of Binding    =   +3.25 kcal/mol  [=(1)+(2)+(3)-(4)]
USER    
USER    (1) Final Intermolecular Energy     =   -3.91 kcal/mol
USER        vdW + Hbond + desolv Energy     =   -3.49 kcal/mol
USER        Electrostatic Energy            =   -0.42 kcal/mol
USER    (2) Final Total Internal Energy     =  -11.76 kcal/mol
USER    (3) Torsional Free Energy           =   +7.16 kcal/mol
USER    (4) Unbound System's Energy  [=(2)] =  -11.76 kcal/mol
USER    
USER    
USER  
USER    DPF = D:/Protein_go_brrr/autodock/final/mut_Y35F/IHP/dock.dpf
USER    NEWDPF move	IHP_ideal_opt.pdbqt
USER    NEWDPF about	0.035000 0.082000 -0.065000
USER    NEWDPF tran0	-9.877652 -5.739103 17.976652
USER    NEWDPF axisangle0	-0.108504 -0.336563 0.935389 54.963750
USER    NEWDPF quaternion0	-0.050071 -0.155313 0.431652 0.887157
USER    NEWDPF dihe0	117.56 73.10 41.19 47.25 145.55 -86.95 -89.60 54.67 64.71 -46.15 163.19 179.71 -63.29 36.76 116.72 124.07 115.20 111.81 64.57 14.43 -55.72 65.93 160.59 -32.76 
USER  
USER                              x       y       z    vdW   Elec        q     RMS 
ATOM      1  C   UNL d   1      -9.662  -7.408  18.366 -0.00 -0.01    +0.194    18.547
ATOM      2  C   UNL d   1     -11.099  -6.890  18.451 -0.01 -0.02    +0.194    18.547
ATOM      3  C   UNL d   1     -11.167  -5.518  19.125 -0.01 -0.02    +0.194    18.547
ATOM      4  C   UNL d   1     -10.220  -4.495  18.503 -0.04 -0.01    +0.194    18.547
ATOM      5  C   UNL d   1      -8.802  -5.009  18.293 -0.06 -0.01    +0.194    18.547
ATOM      6  C   UNL d   1      -8.735  -6.407  17.676 -0.07 -0.02    +0.194    18.547
ATOM      7  O   UNL d   1      -9.664  -8.601  17.578 -0.00 +0.01    -0.278    18.547
ATOM      8  P   UNL d   1     -10.579  -9.822  18.051 +0.01 -0.00    +0.473    18.547
ATOM      9  O   UNL d   1     -11.139  -9.696  19.424 +0.00 +0.01    -0.228    18.547
ATOM     10  O   UNL d   1     -11.701  -9.925  16.922 +0.00 -0.01    -0.303    18.547
ATOM     11  H   UNL d   1     -11.983  -9.030  16.659 +0.02 -0.01    +0.222    18.547
ATOM     12  O   UNL d   1      -9.708 -11.122  17.774 +0.00 -0.01    -0.303    18.547
ATOM     13  H   UNL d   1      -8.739 -10.952  17.813 +0.01 +0.00    +0.222    18.547
ATOM     14  O   UNL d   1     -11.633  -6.775  17.126 -0.05 +0.08    -0.278    18.547
ATOM     15  P   UNL d   1     -13.196  -7.078  16.956 -0.02 -0.16    +0.473    18.547
ATOM     16  O   UNL d   1     -14.122  -5.907  17.055 -0.07 +0.08    -0.228    18.547
ATOM     17  O   UNL d   1     -13.295  -7.827  15.553 -0.05 +0.16    -0.303    18.547
ATOM     18  H   UNL d   1     -12.883  -7.298  14.843 -0.42 -0.36    +0.222    18.547
ATOM     19  O   UNL d   1     -13.483  -8.267  17.973 -0.00 +0.03    -0.303    18.547
ATOM     20  H   UNL d   1     -12.657  -8.664  18.306 +0.01 -0.02    +0.222    18.547
ATOM     21  O   UNL d   1      -7.401  -6.876  17.862 -0.08 +0.02    -0.278    18.547
ATOM     22  P   UNL d   1      -6.829  -8.029  16.919 -0.09 -0.07    +0.473    18.547
ATOM     23  O   UNL d   1      -5.377  -8.004  16.578 -0.21 +0.05    -0.228    18.547
ATOM     24  O   UNL d   1      -7.314  -9.341  17.677 -0.01 +0.02    -0.303    18.547
ATOM     25  H   UNL d   1      -8.269  -9.488  17.457 +0.03 -0.01    +0.222    18.547
ATOM     26  O   UNL d   1      -7.843  -7.969  15.679 -0.10 +0.07    -0.303    18.547
ATOM     27  H   UNL d   1      -7.433  -7.456  14.952 -0.47 -0.15    +0.222    18.547
ATOM     28  O   UNL d   1     -12.475  -5.001  18.911 -0.01 +0.03    -0.278    18.547
ATOM     29  P   UNL d   1     -12.905  -3.611  19.559 +0.01 -0.02    +0.473    18.547
ATOM     30  O   UNL d   1     -12.822  -2.431  18.660 -0.04 +0.01    -0.228    18.547
ATOM     31  O   UNL d   1     -14.355  -3.999  20.114 -0.00 +0.01    -0.303    18.547
ATOM     32  H   UNL d   1     -14.790  -4.599  19.465 +0.01 -0.02    +0.222    18.547
ATOM     33  O   UNL d   1     -12.021  -3.571  20.883 +0.00 +0.01    -0.303    18.547
ATOM     34  H   UNL d   1     -11.366  -2.834  20.809 +0.02 -0.00    +0.222    18.547
ATOM     35  O   UNL d   1      -8.198  -4.111  17.365 -0.15 -0.00    -0.278    18.547
ATOM     36  P   UNL d   1      -8.688  -4.072  15.847 -0.23 +0.02    +0.473    18.547
ATOM     37  O   UNL d   1      -8.357  -2.823  15.094 -0.42 -0.05    -0.228    18.547
ATOM     38  O   UNL d   1      -8.018  -5.390  15.255 -0.19 +0.03    -0.303    18.547
ATOM     39  H   UNL d   1      -7.442  -5.793  15.940 -0.01 -0.04    +0.222    18.547
ATOM     40  O   UNL d   1     -10.227  -4.450  15.978 -0.23 +0.05    -0.303    18.547
ATOM     41  H   UNL d   1     -10.367  -5.423  15.953 +0.05 -0.08    +0.222    18.547
ATOM     42  O   UNL d   1     -10.139  -3.395  19.417 -0.02 +0.00    -0.278    18.547
ATOM     43  P   UNL d   1     -10.021  -1.915  18.834 -0.06 +0.04    +0.473    18.547
ATOM     44  O   UNL d   1     -10.445  -0.794  19.718 -0.08 -0.01    -0.228    18.547
ATOM     45  O   UNL d   1      -8.500  -1.842  18.373 -0.43 -0.07    -0.303    18.547
ATOM     46  H   UNL d   1      -8.393  -2.129  17.444 +0.09 +0.05    +0.222    18.547
ATOM     47  O   UNL d   1     -10.783  -2.013  17.427 -0.17 -0.03    -0.303    18.547
ATOM     48  H   UNL d   1     -11.092  -2.933  17.291 +0.07 -0.00    +0.222    18.547
TER
ENDMDL
MODEL       64
USER    Run = 64
USER    Cluster Rank = 51
USER    Number of conformations in this cluster = 2
USER  
USER    RMSD from reference structure       = 19.688 A
USER  
USER    Estimated Free Energy of Binding    =   +3.25 kcal/mol  [=(1)+(2)+(3)-(4)]
USER    
USER    (1) Final Intermolecular Energy     =   -3.91 kcal/mol
USER        vdW + Hbond + desolv Energy     =   -3.87 kcal/mol
USER        Electrostatic Energy            =   -0.04 kcal/mol
USER    (2) Final Total Internal Energy     =  -13.85 kcal/mol
USER    (3) Torsional Free Energy           =   +7.16 kcal/mol
USER    (4) Unbound System's Energy  [=(2)] =  -13.85 kcal/mol
USER    
USER    
USER  
USER    DPF = D:/Protein_go_brrr/autodock/final/mut_Y35F/IHP/dock.dpf
USER    NEWDPF move	IHP_ideal_opt.pdbqt
USER    NEWDPF about	0.035000 0.082000 -0.065000
USER    NEWDPF tran0	-8.858327 -16.383233 -12.512562
USER    NEWDPF axisangle0	0.401318 0.915928 0.004481 147.984209
USER    NEWDPF quaternion0	0.385756 0.880412 0.004308 0.275770
USER    NEWDPF dihe0	-138.74 -11.91 145.64 -14.79 136.47 144.36 -122.16 -14.96 90.01 88.11 19.10 -95.42 58.36 172.63 49.94 179.97 86.21 -71.73 44.50 15.35 -172.75 12.04 9.59 -176.39 
USER  
USER                              x       y       z    vdW   Elec        q     RMS 
ATOM      1  C   UNL d   1     -10.535 -15.985 -12.388 -0.16 +0.02    +0.194    19.688
ATOM      2  C   UNL d   1     -10.218 -17.475 -12.521 -0.11 +0.02    +0.194    19.688
ATOM      3  C   UNL d   1      -9.139 -17.734 -13.574 -0.14 +0.04    +0.194    19.688
ATOM      4  C   UNL d   1      -7.882 -16.893 -13.367 -0.11 +0.05    +0.194    19.688
ATOM      5  C   UNL d   1      -8.157 -15.416 -13.116 -0.21 +0.02    +0.194    19.688
ATOM      6  C   UNL d   1      -9.279 -15.158 -12.108 -0.28 +0.01    +0.194    19.688
ATOM      7  O   UNL d   1     -11.415 -15.813 -11.276 -0.18 -0.04    -0.278    19.688
ATOM      8  P   UNL d   1     -12.961 -16.165 -11.470 -0.09 +0.05    +0.473    19.688
ATOM      9  O   UNL d   1     -13.428 -17.378 -10.745 -0.06 -0.02    -0.228    19.688
ATOM     10  O   UNL d   1     -13.720 -14.835 -11.021 -0.16 -0.05    -0.303    19.688
ATOM     11  H   UNL d   1     -13.481 -14.104 -11.620 +0.06 +0.04    +0.222    19.688
ATOM     12  O   UNL d   1     -13.191 -16.164 -13.042 -0.03 -0.02    -0.303    19.688
ATOM     13  H   UNL d   1     -12.945 -15.312 -13.467 +0.03 +0.02    +0.222    19.688
ATOM     14  O   UNL d   1      -9.751 -17.967 -11.258 -0.16 -0.01    -0.278    19.688
ATOM     15  P   UNL d   1     -10.124 -19.482 -10.898 -0.07 +0.04    +0.473    19.688
ATOM     16  O   UNL d   1     -10.692 -19.729  -9.536 -0.07 -0.01    -0.228    19.688
ATOM     17  O   UNL d   1     -11.109 -19.928 -12.069 -0.02 -0.03    -0.303    19.688
ATOM     18  H   UNL d   1     -10.732 -19.717 -12.944 +0.03 +0.04    +0.222    19.688
ATOM     19  O   UNL d   1      -8.812 -20.309 -11.253 -0.11 -0.06    -0.303    19.688
ATOM     20  H   UNL d   1      -8.700 -20.413 -12.216 +0.04 +0.07    +0.222    19.688
ATOM     21  O   UNL d   1      -9.644 -13.786 -12.240 -0.21 -0.02    -0.278    19.688
ATOM     22  P   UNL d   1     -10.698 -13.350 -13.356 -0.04 +0.04    +0.473    19.688
ATOM     23  O   UNL d   1     -12.148 -13.549 -13.071 -0.07 -0.03    -0.228    19.688
ATOM     24  O   UNL d   1     -10.273 -11.842 -13.634 -0.10 -0.01    -0.303    19.688
ATOM     25  H   UNL d   1      -9.402 -11.849 -14.106 +0.05 +0.00    +0.222    19.688
ATOM     26  O   UNL d   1     -10.127 -14.100 -14.653 -0.03 -0.02    -0.303    19.688
ATOM     27  H   UNL d   1      -9.155 -14.185 -14.573 +0.05 +0.02    +0.222    19.688
ATOM     28  O   UNL d   1      -8.717 -19.084 -13.433 -0.14 -0.11    -0.278    19.688
ATOM     29  P   UNL d   1      -8.813 -20.090 -14.664 -0.09 +0.27    +0.473    19.688
ATOM     30  O   UNL d   1      -7.853 -21.224 -14.642 -0.47 -0.27    -0.228    19.688
ATOM     31  O   UNL d   1     -10.370 -20.456 -14.604 -0.02 -0.08    -0.303    19.688
ATOM     32  H   UNL d   1     -10.531 -21.015 -13.809 +0.02 +0.05    +0.222    19.688
ATOM     33  O   UNL d   1      -8.732 -19.102 -15.910 -0.07 -0.15    -0.303    19.688
ATOM     34  H   UNL d   1      -8.018 -18.438 -15.747 +0.02 +0.13    +0.222    19.688
ATOM     35  O   UNL d   1      -6.958 -14.888 -12.554 -0.28 -0.00    -0.278    19.688
ATOM     36  P   UNL d   1      -6.436 -13.443 -12.982 -0.16 -0.04    +0.473    19.688
ATOM     37  O   UNL d   1      -6.080 -12.526 -11.856 -0.30 +0.07    -0.228    19.688
ATOM     38  O   UNL d   1      -5.218 -13.807 -13.941 -0.14 -0.01    -0.303    19.688
ATOM     39  H   UNL d   1      -5.320 -14.732 -14.253 +0.06 +0.03    +0.222    19.688
ATOM     40  O   UNL d   1      -7.574 -12.953 -13.980 -0.05 +0.00    -0.303    19.688
ATOM     41  H   UNL d   1      -8.473 -13.112 -13.614 +0.07 +0.00    +0.222    19.688
ATOM     42  O   UNL d   1      -7.120 -16.980 -14.576 -0.07 -0.12    -0.278    19.688
ATOM     43  P   UNL d   1      -7.640 -16.208 -15.872 -0.06 +0.12    +0.473    19.688
ATOM     44  O   UNL d   1      -9.102 -15.943 -15.973 -0.02 -0.03    -0.228    19.688
ATOM     45  O   UNL d   1      -6.739 -14.896 -15.881 -0.03 -0.05    -0.303    19.688
ATOM     46  H   UNL d   1      -6.792 -14.419 -15.029 +0.05 +0.02    +0.222    19.688
ATOM     47  O   UNL d   1      -7.003 -17.048 -17.079 -0.06 -0.11    -0.303    19.688
ATOM     48  H   UNL d   1      -7.577 -17.818 -17.274 +0.02 +0.09    +0.222    19.688
TER
ENDMDL
MODEL       18
USER    Run = 18
USER    Cluster Rank = 52
USER    Number of conformations in this cluster = 1
USER  
USER    RMSD from reference structure       = 14.391 A
USER  
USER    Estimated Free Energy of Binding    =   +3.26 kcal/mol  [=(1)+(2)+(3)-(4)]
USER    
USER    (1) Final Intermolecular Energy     =   -3.90 kcal/mol
USER        vdW + Hbond + desolv Energy     =   -3.84 kcal/mol
USER        Electrostatic Energy            =   -0.05 kcal/mol
USER    (2) Final Total Internal Energy     =  -13.45 kcal/mol
USER    (3) Torsional Free Energy           =   +7.16 kcal/mol
USER    (4) Unbound System's Energy  [=(2)] =  -13.45 kcal/mol
USER    
USER    
USER  
USER    DPF = D:/Protein_go_brrr/autodock/final/mut_Y35F/IHP/dock.dpf
USER    NEWDPF move	IHP_ideal_opt.pdbqt
USER    NEWDPF about	0.035000 0.082000 -0.065000
USER    NEWDPF tran0	-15.295976 -4.390936 -6.532554
USER    NEWDPF axisangle0	-0.059771 -0.929821 -0.363127 -175.920724
USER    NEWDPF quaternion0	-0.059733 -0.929232 -0.362897 -0.035591
USER    NEWDPF dihe0	134.18 116.24 69.20 95.91 34.70 -75.96 -11.99 -86.89 96.10 -4.01 -19.13 -101.41 150.01 130.78 -20.11 92.13 -167.66 -64.50 15.12 -10.31 143.08 -7.70 -19.27 158.84 
USER  
USER                              x       y       z    vdW   Elec        q     RMS 
ATOM      1  C   UNL d   1     -16.676  -4.395  -7.571 -0.04 +0.01    +0.194    14.391
ATOM      2  C   UNL d   1     -15.542  -5.338  -7.976 -0.10 +0.01    +0.194    14.391
ATOM      3  C   UNL d   1     -14.172  -4.672  -7.832 -0.14 +0.01    +0.194    14.391
ATOM      4  C   UNL d   1     -13.946  -4.054  -6.455 +0.07 +0.03    +0.194    14.391
ATOM      5  C   UNL d   1     -15.104  -3.196  -5.961 -0.12 +0.02    +0.194    14.391
ATOM      6  C   UNL d   1     -16.479  -3.837  -6.161 -0.06 +0.01    +0.194    14.391
ATOM      7  O   UNL d   1     -17.896  -5.141  -7.567 -0.01 -0.01    -0.278    14.391
ATOM      8  P   UNL d   1     -18.952  -4.876  -8.737 -0.00 +0.01    +0.473    14.391
ATOM      9  O   UNL d   1     -20.352  -5.272  -8.425 -0.00 -0.00    -0.228    14.391
ATOM     10  O   UNL d   1     -18.795  -3.320  -9.054 -0.00 -0.01    -0.303    14.391
ATOM     11  H   UNL d   1     -18.428  -2.863  -8.274 +0.00 +0.01    +0.222    14.391
ATOM     12  O   UNL d   1     -18.313  -5.544 -10.029 -0.00 -0.00    -0.303    14.391
ATOM     13  H   UNL d   1     -18.318  -6.528  -9.996 +0.02 +0.00    +0.222    14.391
ATOM     14  O   UNL d   1     -15.576  -6.498  -7.134 +0.00 -0.01    -0.278    14.391
ATOM     15  P   UNL d   1     -15.750  -7.910  -7.868 -0.17 +0.00    +0.473    14.391
ATOM     16  O   UNL d   1     -15.931  -9.107  -6.987 -0.34 -0.00    -0.228    14.391
ATOM     17  O   UNL d   1     -16.975  -7.683  -8.860 -0.06 -0.01    -0.303    14.391
ATOM     18  H   UNL d   1     -17.570  -6.982  -8.530 +0.04 +0.00    +0.222    14.391
ATOM     19  O   UNL d   1     -14.526  -7.984  -8.882 -0.18 -0.01    -0.303    14.391
ATOM     20  H   UNL d   1     -13.723  -7.576  -8.508 -0.12 -0.02    +0.222    14.391
ATOM     21  O   UNL d   1     -17.445  -2.805  -5.980 -0.01 -0.02    -0.278    14.391
ATOM     22  P   UNL d   1     -17.172  -1.351  -6.578 +0.00 +0.02    +0.473    14.391
ATOM     23  O   UNL d   1     -16.017  -1.176  -7.505 -0.01 -0.01    -0.228    14.391
ATOM     24  O   UNL d   1     -18.590  -0.985  -7.202 -0.00 -0.01    -0.303    14.391
ATOM     25  H   UNL d   1     -19.019  -1.825  -7.508 +0.00 +0.01    +0.222    14.391
ATOM     26  O   UNL d   1     -17.152  -0.452  -5.252 -0.01 -0.02    -0.303    14.391
ATOM     27  H   UNL d   1     -16.238  -0.144  -5.085 +0.03 +0.02    +0.222    14.391
ATOM     28  O   UNL d   1     -13.186  -5.688  -7.957 -0.26 -0.01    -0.278    14.391
ATOM     29  P   UNL d   1     -12.366  -5.852  -9.312 -0.23 +0.01    +0.473    14.391
ATOM     30  O   UNL d   1     -11.457  -4.727  -9.651 -0.19 -0.01    -0.228    14.391
ATOM     31  O   UNL d   1     -11.691  -7.281  -9.060 -0.33 +0.01    -0.303    14.391
ATOM     32  H   UNL d   1     -12.350  -7.866  -8.620 -0.37 -0.03    +0.222    14.391
ATOM     33  O   UNL d   1     -13.517  -6.187 -10.360 -0.10 -0.01    -0.303    14.391
ATOM     34  H   UNL d   1     -14.263  -6.631  -9.887 +0.07 +0.01    +0.222    14.391
ATOM     35  O   UNL d   1     -14.908  -3.053  -4.556 -0.19 -0.03    -0.278    14.391
ATOM     36  P   UNL d   1     -14.516  -1.635  -3.938 -0.16 +0.05    +0.473    14.391
ATOM     37  O   UNL d   1     -13.252  -1.608  -3.138 -0.37 -0.02    -0.228    14.391
ATOM     38  O   UNL d   1     -14.490  -0.711  -5.235 -0.05 -0.02    -0.303    14.391
ATOM     39  H   UNL d   1     -15.085  -1.094  -5.914 +0.05 +0.02    +0.222    14.391
ATOM     40  O   UNL d   1     -15.853  -1.209  -3.191 -0.09 -0.05    -0.303    14.391
ATOM     41  H   UNL d   1     -16.647  -1.360  -3.750 +0.04 +0.03    +0.222    14.391
ATOM     42  O   UNL d   1     -12.805  -3.196  -6.568 -0.23 -0.04    -0.278    14.391
ATOM     43  P   UNL d   1     -12.728  -2.172  -7.788 -0.08 +0.05    +0.473    14.391
ATOM     44  O   UNL d   1     -13.602  -2.438  -8.964 -0.03 -0.01    -0.228    14.391
ATOM     45  O   UNL d   1     -12.992  -0.770  -7.085 -0.07 -0.02    -0.303    14.391
ATOM     46  H   UNL d   1     -13.942  -0.537  -7.096 +0.04 +0.01    +0.222    14.391
ATOM     47  O   UNL d   1     -11.157  -2.090  -8.099 -0.15 -0.05    -0.303    14.391
ATOM     48  H   UNL d   1     -10.884  -2.889  -8.595 +0.07 +0.04    +0.222    14.391
TER
ENDMDL
MODEL       42
USER    Run = 42
USER    Cluster Rank = 53
USER    Number of conformations in this cluster = 1
USER  
USER    RMSD from reference structure       = 20.628 A
USER  
USER    Estimated Free Energy of Binding    =   +3.28 kcal/mol  [=(1)+(2)+(3)-(4)]
USER    
USER    (1) Final Intermolecular Energy     =   -3.88 kcal/mol
USER        vdW + Hbond + desolv Energy     =   -3.26 kcal/mol
USER        Electrostatic Energy            =   -0.61 kcal/mol
USER    (2) Final Total Internal Energy     =  -13.27 kcal/mol
USER    (3) Torsional Free Energy           =   +7.16 kcal/mol
USER    (4) Unbound System's Energy  [=(2)] =  -13.27 kcal/mol
USER    
USER    
USER  
USER    DPF = D:/Protein_go_brrr/autodock/final/mut_Y35F/IHP/dock.dpf
USER    NEWDPF move	IHP_ideal_opt.pdbqt
USER    NEWDPF about	0.035000 0.082000 -0.065000
USER    NEWDPF tran0	-0.389715 9.222822 20.054534
USER    NEWDPF axisangle0	-0.510817 0.302108 0.804858 -74.075973
USER    NEWDPF quaternion0	-0.307688 0.181973 0.484802 -0.798236
USER    NEWDPF dihe0	170.40 -75.18 65.83 139.21 14.28 -170.34 -71.37 74.02 98.78 34.81 0.24 171.90 95.96 -8.71 -49.93 10.94 161.35 159.57 1.65 -30.39 154.03 170.86 -15.63 -19.04 
USER  
USER                              x       y       z    vdW   Elec        q     RMS 
ATOM      1  C   UNL d   1       0.972  10.278  20.185 -0.07 -0.09    +0.194    20.628
ATOM      2  C   UNL d   1       1.108   8.932  20.898 -0.03 -0.05    +0.194    20.628
ATOM      3  C   UNL d   1      -0.172   8.555  21.647 -0.01 -0.03    +0.194    20.628
ATOM      4  C   UNL d   1      -1.422   8.621  20.773 -0.02 -0.03    +0.194    20.628
ATOM      5  C   UNL d   1      -1.540   9.900  19.955 -0.07 -0.07    +0.194    20.628
ATOM      6  C   UNL d   1      -0.242  10.310  19.255 -0.12 -0.15    +0.194    20.628
ATOM      7  O   UNL d   1       2.134  10.474  19.376 -0.09 +0.16    -0.278    20.628
ATOM      8  P   UNL d   1       3.042  11.759  19.650 -0.02 -0.19    +0.473    20.628
ATOM      9  O   UNL d   1       4.496  11.570  19.393 -0.02 +0.04    -0.228    20.628
ATOM     10  O   UNL d   1       2.387  12.896  18.743 -0.07 +0.25    -0.303    20.628
ATOM     11  H   UNL d   1       1.515  12.597  18.422 -0.41 -0.38    +0.222    20.628
ATOM     12  O   UNL d   1       2.652  12.236  21.114 -0.00 +0.07    -0.303    20.628
ATOM     13  H   UNL d   1       2.299  13.153  21.140 +0.01 -0.05    +0.222    20.628
ATOM     14  O   UNL d   1       1.385   7.915  19.927 -0.08 +0.08    -0.278    20.628
ATOM     15  P   UNL d   1       2.909   7.440  19.803 -0.05 -0.11    +0.473    20.628
ATOM     16  O   UNL d   1       3.628   7.145  21.082 -0.02 +0.02    -0.228    20.628
ATOM     17  O   UNL d   1       2.845   6.182  18.827 +0.02 +0.11    -0.303    20.628
ATOM     18  H   UNL d   1       1.992   5.715  18.911 -0.33 -0.08    +0.222    20.628
ATOM     19  O   UNL d   1       3.591   8.534  18.870 -0.08 +0.08    -0.303    20.628
ATOM     20  H   UNL d   1       3.810   9.344  19.366 +0.03 -0.05    +0.222    20.628
ATOM     21  O   UNL d   1      -0.410  11.662  18.834 +0.08 +0.44    -0.278    20.628
ATOM     22  P   UNL d   1      -0.893  12.764  19.882 -0.03 -0.30    +0.473    20.628
ATOM     23  O   UNL d   1      -1.576  12.303  21.125 -0.02 +0.06    -0.228    20.628
ATOM     24  O   UNL d   1       0.444  13.592  20.123 -0.05 +0.15    -0.303    20.628
ATOM     25  H   UNL d   1       1.165  12.953  20.356 +0.02 -0.10    +0.222    20.628
ATOM     26  O   UNL d   1      -1.734  13.757  18.945 -0.07 +0.19    -0.303    20.628
ATOM     27  H   UNL d   1      -1.929  13.311  18.096 -0.37 -0.36    +0.222    20.628
ATOM     28  O   UNL d   1      -0.055   7.192  22.036 -0.00 +0.03    -0.278    20.628
ATOM     29  P   UNL d   1      -0.309   6.029  20.979 -0.00 -0.05    +0.473    20.628
ATOM     30  O   UNL d   1      -0.992   6.441  19.725 -0.07 +0.03    -0.228    20.628
ATOM     31  O   UNL d   1       1.176   5.449  20.840 -0.02 +0.03    -0.303    20.628
ATOM     32  H   UNL d   1       1.811   6.132  21.156 +0.02 -0.03    +0.222    20.628
ATOM     33  O   UNL d   1      -1.037   4.925  21.865 -0.00 +0.02    -0.303    20.628
ATOM     34  H   UNL d   1      -1.831   4.593  21.378 +0.02 -0.01    +0.222    20.628
ATOM     35  O   UNL d   1      -2.496   9.620  18.934 -0.10 +0.09    -0.278    20.628
ATOM     36  P   UNL d   1      -3.889  10.397  18.902 -0.06 -0.03    +0.473    20.628
ATOM     37  O   UNL d   1      -5.015   9.674  18.234 -0.08 -0.02    -0.228    20.628
ATOM     38  O   UNL d   1      -4.130  10.699  20.447 -0.01 +0.01    -0.303    20.628
ATOM     39  H   UNL d   1      -3.262  10.774  20.899 +0.02 -0.02    +0.222    20.628
ATOM     40  O   UNL d   1      -3.477  11.809  18.296 -0.64 -0.02    -0.303    20.628
ATOM     41  H   UNL d   1      -2.502  11.894  18.201 -0.52 -0.26    +0.222    20.628
ATOM     42  O   UNL d   1      -2.548   8.580  21.656 +0.00 +0.03    -0.278    20.628
ATOM     43  P   UNL d   1      -3.722   7.541  21.361 +0.01 -0.02    +0.473    20.628
ATOM     44  O   UNL d   1      -5.078   7.872  21.881 -0.00 +0.00    -0.228    20.628
ATOM     45  O   UNL d   1      -3.653   7.377  19.780 -0.03 +0.01    -0.303    20.628
ATOM     46  H   UNL d   1      -3.992   8.172  19.322 +0.05 -0.01    +0.222    20.628
ATOM     47  O   UNL d   1      -3.111   6.146  21.861 -0.00 +0.01    -0.303    20.628
ATOM     48  H   UNL d   1      -2.161   6.266  22.068 +0.01 -0.01    +0.222    20.628
TER
ENDMDL
MODEL       61
USER    Run = 61
USER    Cluster Rank = 54
USER    Number of conformations in this cluster = 1
USER  
USER    RMSD from reference structure       = 15.585 A
USER  
USER    Estimated Free Energy of Binding    =   +3.28 kcal/mol  [=(1)+(2)+(3)-(4)]
USER    
USER    (1) Final Intermolecular Energy     =   -3.88 kcal/mol
USER        vdW + Hbond + desolv Energy     =   -3.84 kcal/mol
USER        Electrostatic Energy            =   -0.04 kcal/mol
USER    (2) Final Total Internal Energy     =  -15.03 kcal/mol
USER    (3) Torsional Free Energy           =   +7.16 kcal/mol
USER    (4) Unbound System's Energy  [=(2)] =  -15.03 kcal/mol
USER    
USER    
USER  
USER    DPF = D:/Protein_go_brrr/autodock/final/mut_Y35F/IHP/dock.dpf
USER    NEWDPF move	IHP_ideal_opt.pdbqt
USER    NEWDPF about	0.035000 0.082000 -0.065000
USER    NEWDPF tran0	13.186843 12.760166 5.586558
USER    NEWDPF axisangle0	-0.827357 0.108799 -0.551038 136.726833
USER    NEWDPF quaternion0	-0.769062 0.101133 -0.512213 0.368718
USER    NEWDPF dihe0	71.95 125.11 121.69 132.93 -7.82 173.70 -151.62 -68.75 86.58 54.67 -158.04 140.16 -15.13 95.94 -179.23 -156.69 110.64 167.00 48.88 0.52 170.57 0.34 -9.70 174.27 
USER  
USER                              x       y       z    vdW   Elec        q     RMS 
ATOM      1  C   UNL d   1      14.794  13.136   6.095 -0.02 +0.01    +0.194    15.585
ATOM      2  C   UNL d   1      14.392  13.676   4.721 -0.05 -0.00    +0.194    15.585
ATOM      3  C   UNL d   1      13.623  12.633   3.906 -0.13 -0.01    +0.194    15.585
ATOM      4  C   UNL d   1      12.439  12.035   4.661 -0.12 -0.00    +0.194    15.585
ATOM      5  C   UNL d   1      12.768  11.588   6.079 -0.07 +0.01    +0.194    15.585
ATOM      6  C   UNL d   1      13.590  12.605   6.874 -0.04 +0.01    +0.194    15.585
ATOM      7  O   UNL d   1      15.350  14.214   6.852 -0.00 -0.01    -0.278    15.585
ATOM      8  P   UNL d   1      16.812  14.734   6.473 +0.00 +0.01    +0.473    15.585
ATOM      9  O   UNL d   1      17.128  14.726   5.019 -0.02 +0.00    -0.228    15.585
ATOM     10  O   UNL d   1      16.887  16.188   7.125 +0.00 +0.00    -0.303    15.585
ATOM     11  H   UNL d   1      16.511  16.843   6.507 +0.00 -0.01    +0.222    15.585
ATOM     12  O   UNL d   1      17.799  13.903   7.401 -0.00 -0.02    -0.303    15.585
ATOM     13  H   UNL d   1      17.975  12.996   7.062 +0.01 +0.02    +0.222    15.585
ATOM     14  O   UNL d   1      13.556  14.826   4.897 -0.02 +0.02    -0.278    15.585
ATOM     15  P   UNL d   1      13.923  16.118   4.026 +0.02 -0.08    +0.473    15.585
ATOM     16  O   UNL d   1      12.793  17.034   3.673 -0.02 +0.05    -0.228    15.585
ATOM     17  O   UNL d   1      15.064  16.843   4.870 +0.00 +0.04    -0.303    15.585
ATOM     18  H   UNL d   1      15.546  16.204   5.430 +0.01 -0.02    +0.222    15.585
ATOM     19  O   UNL d   1      14.752  15.545   2.795 -0.04 +0.09    -0.303    15.585
ATOM     20  H   UNL d   1      14.178  15.078   2.160 +0.07 -0.08    +0.222    15.585
ATOM     21  O   UNL d   1      14.100  11.921   8.016 -0.01 -0.03    -0.278    15.585
ATOM     22  P   UNL d   1      15.200  10.780   7.831 +0.00 +0.07    +0.473    15.585
ATOM     23  O   UNL d   1      15.216   9.652   8.806 +0.00 -0.04    -0.228    15.585
ATOM     24  O   UNL d   1      14.970  10.350   6.315 -0.04 -0.06    -0.303    15.585
ATOM     25  H   UNL d   1      14.134   9.820   6.269 +0.04 +0.04    +0.222    15.585
ATOM     26  O   UNL d   1      16.548  11.642   7.730 -0.00 -0.04    -0.303    15.585
ATOM     27  H   UNL d   1      16.328  12.593   7.801 +0.01 +0.02    +0.222    15.585
ATOM     28  O   UNL d   1      13.058  13.299   2.784 -0.14 +0.04    -0.278    15.585
ATOM     29  P   UNL d   1      13.600  13.002   1.316 -0.27 -0.07    +0.473    15.585
ATOM     30  O   UNL d   1      12.894  13.709   0.217 -0.89 +0.07    -0.228    15.585
ATOM     31  O   UNL d   1      15.152  13.339   1.517 -0.45 +0.01    -0.303    15.585
ATOM     32  H   UNL d   1      15.325  14.243   1.166 +0.06 -0.08    +0.222    15.585
ATOM     33  O   UNL d   1      13.589  11.410   1.271 -0.71 +0.02    -0.303    15.585
ATOM     34  H   UNL d   1      13.412  11.065   2.181 +0.03 -0.03    +0.222    15.585
ATOM     35  O   UNL d   1      11.513  11.453   6.743 +0.02 -0.03    -0.278    15.585
ATOM     36  P   UNL d   1      11.081  10.050   7.367 -0.05 +0.09    +0.473    15.585
ATOM     37  O   UNL d   1      10.099  10.120   8.494 -0.21 -0.05    -0.228    15.585
ATOM     38  O   UNL d   1      10.549   9.272   6.083 -0.12 -0.05    -0.303    15.585
ATOM     39  H   UNL d   1      10.869   9.729   5.276 +0.09 +0.02    +0.222    15.585
ATOM     40  O   UNL d   1      12.484   9.367   7.675 -0.02 -0.07    -0.303    15.585
ATOM     41  H   UNL d   1      13.224  10.012   7.615 +0.03 +0.04    +0.222    15.585
ATOM     42  O   UNL d   1      12.032  10.869   3.936 -0.15 +0.02    -0.278    15.585
ATOM     43  P   UNL d   1      13.051   9.650   3.801 -0.17 +0.02    +0.473    15.585
ATOM     44  O   UNL d   1      12.996   8.844   2.549 -0.37 +0.00    -0.228    15.585
ATOM     45  O   UNL d   1      14.459  10.341   4.069 -0.17 -0.09    -0.303    15.585
ATOM     46  H   UNL d   1      14.970   9.861   4.750 +0.07 +0.09    +0.222    15.585
ATOM     47  O   UNL d   1      12.826   8.832   5.161 -0.07 -0.05    -0.303    15.585
ATOM     48  H   UNL d   1      12.729   9.463   5.904 +0.06 +0.03    +0.222    15.585
TER
ENDMDL
MODEL       57
USER    Run = 57
USER    Cluster Rank = 55
USER    Number of conformations in this cluster = 1
USER  
USER    RMSD from reference structure       = 15.429 A
USER  
USER    Estimated Free Energy of Binding    =   +3.31 kcal/mol  [=(1)+(2)+(3)-(4)]
USER    
USER    (1) Final Intermolecular Energy     =   -3.85 kcal/mol
USER        vdW + Hbond + desolv Energy     =   -3.66 kcal/mol
USER        Electrostatic Energy            =   -0.18 kcal/mol
USER    (2) Final Total Internal Energy     =  -13.08 kcal/mol
USER    (3) Torsional Free Energy           =   +7.16 kcal/mol
USER    (4) Unbound System's Energy  [=(2)] =  -13.08 kcal/mol
USER    
USER    
USER  
USER    DPF = D:/Protein_go_brrr/autodock/final/mut_Y35F/IHP/dock.dpf
USER    NEWDPF move	IHP_ideal_opt.pdbqt
USER    NEWDPF about	0.035000 0.082000 -0.065000
USER    NEWDPF tran0	-5.141086 -11.180148 13.052829
USER    NEWDPF axisangle0	0.442573 -0.850773 0.283398 -138.180568
USER    NEWDPF quaternion0	0.413427 -0.794744 0.264735 -0.356896
USER    NEWDPF dihe0	121.81 112.44 154.89 49.71 19.29 -149.03 -106.96 19.05 18.69 22.14 95.95 10.01 -50.69 -157.04 -56.17 28.90 141.09 -111.10 24.90 -31.16 172.86 -45.34 -15.95 140.20 
USER  
USER                              x       y       z    vdW   Elec        q     RMS 
ATOM      1  C   UNL d   1      -5.171 -12.793  13.671 -0.02 -0.00    +0.194    15.429
ATOM      2  C   UNL d   1      -3.859 -12.361  13.014 -0.04 -0.01    +0.194    15.429
ATOM      3  C   UNL d   1      -4.102 -11.587  11.717 -0.11 -0.01    +0.194    15.429
ATOM      4  C   UNL d   1      -5.074 -10.422  11.885 -0.11 -0.01    +0.194    15.429
ATOM      5  C   UNL d   1      -6.349 -10.781  12.637 -0.15 +0.00    +0.194    15.429
ATOM      6  C   UNL d   1      -6.110 -11.608  13.902 -0.05 +0.00    +0.194    15.429
ATOM      7  O   UNL d   1      -4.866 -13.351  14.951 -0.00 +0.01    -0.278    15.429
ATOM      8  P   UNL d   1      -4.761 -14.940  15.081 -0.00 -0.01    +0.473    15.429
ATOM      9  O   UNL d   1      -4.977 -15.692  13.815 -0.00 +0.00    -0.228    15.429
ATOM     10  O   UNL d   1      -3.318 -15.182  15.717 -0.00 +0.01    -0.303    15.429
ATOM     11  H   UNL d   1      -2.691 -14.524  15.363 +0.00 -0.01    +0.222    15.429
ATOM     12  O   UNL d   1      -5.724 -15.321  16.286 +0.00 +0.00    -0.303    15.429
ATOM     13  H   UNL d   1      -6.674 -15.160  16.087 +0.00 -0.00    +0.222    15.429
ATOM     14  O   UNL d   1      -3.138 -11.517  13.921 -0.04 +0.02    -0.278    15.429
ATOM     15  P   UNL d   1      -1.945 -12.201  14.741 -0.00 -0.03    +0.473    15.429
ATOM     16  O   UNL d   1      -2.232 -12.568  16.164 -0.01 +0.01    -0.228    15.429
ATOM     17  O   UNL d   1      -1.532 -13.456  13.851 -0.00 +0.02    -0.303    15.429
ATOM     18  H   UNL d   1      -1.252 -13.176  12.958 +0.01 -0.01    +0.222    15.429
ATOM     19  O   UNL d   1      -0.704 -11.230  14.520 -0.01 +0.03    -0.303    15.429
ATOM     20  H   UNL d   1      -0.889 -10.558  13.838 +0.04 -0.03    +0.222    15.429
ATOM     21  O   UNL d   1      -7.373 -12.145  14.289 -0.01 -0.02    -0.278    15.429
ATOM     22  P   UNL d   1      -8.049 -13.291  13.410 -0.00 +0.05    +0.473    15.429
ATOM     23  O   UNL d   1      -7.696 -13.370  11.963 -0.05 -0.02    -0.228    15.429
ATOM     24  O   UNL d   1      -7.703 -14.596  14.253 -0.00 -0.01    -0.303    15.429
ATOM     25  H   UNL d   1      -6.743 -14.559  14.498 +0.01 +0.00    +0.222    15.429
ATOM     26  O   UNL d   1      -9.603 -13.084  13.744 -0.02 -0.07    -0.303    15.429
ATOM     27  H   UNL d   1      -9.788 -12.126  13.833 +0.02 +0.08    +0.222    15.429
ATOM     28  O   UNL d   1      -2.868 -10.996  11.332 -0.10 +0.02    -0.278    15.429
ATOM     29  P   UNL d   1      -1.633 -11.911  10.915 -0.01 -0.04    +0.473    15.429
ATOM     30  O   UNL d   1      -1.896 -13.373  10.896 -0.03 +0.01    -0.228    15.429
ATOM     31  O   UNL d   1      -1.235 -11.226   9.525 -0.09 +0.03    -0.303    15.429
ATOM     32  H   UNL d   1      -2.029 -11.216   8.941 +0.12 -0.02    +0.222    15.429
ATOM     33  O   UNL d   1      -0.490 -11.399  11.899 -0.02 +0.04    -0.303    15.429
ATOM     34  H   UNL d   1      -0.636 -11.793  12.793 +0.03 -0.02    +0.222    15.429
ATOM     35  O   UNL d   1      -6.919  -9.540  13.049 -0.17 +0.02    -0.278    15.429
ATOM     36  P   UNL d   1      -8.322  -9.064  12.459 -0.15 +0.18    +0.473    15.429
ATOM     37  O   UNL d   1      -8.760  -7.692  12.863 -0.45 -0.04    -0.228    15.429
ATOM     38  O   UNL d   1      -8.096  -9.244  10.893 -0.27 -0.08    -0.303    15.429
ATOM     39  H   UNL d   1      -7.264  -8.791  10.634 -0.41 -0.06    +0.222    15.429
ATOM     40  O   UNL d   1      -9.282 -10.272  12.848 -0.26 -0.29    -0.303    15.429
ATOM     41  H   UNL d   1      -8.775 -11.091  13.044 +0.05 +0.10    +0.222    15.429
ATOM     42  O   UNL d   1      -5.463 -10.014  10.569 -0.25 +0.03    -0.278    15.429
ATOM     43  P   UNL d   1      -5.481 -11.097   9.398 -0.14 -0.06    +0.473    15.429
ATOM     44  O   UNL d   1      -4.176 -11.690   8.992 -0.20 +0.01    -0.228    15.429
ATOM     45  O   UNL d   1      -6.544 -12.159   9.922 -0.11 +0.03    -0.303    15.429
ATOM     46  H   UNL d   1      -7.158 -11.761  10.570 +0.07 +0.01    +0.222    15.429
ATOM     47  O   UNL d   1      -6.300 -10.363   8.232 -0.30 +0.07    -0.303    15.429
ATOM     48  H   UNL d   1      -6.489 -11.006   7.517 -0.40 -0.11    +0.222    15.429
TER
ENDMDL
MODEL       21
USER    Run = 21
USER    Cluster Rank = 56
USER    Number of conformations in this cluster = 1
USER  
USER    RMSD from reference structure       = 13.166 A
USER  
USER    Estimated Free Energy of Binding    =   +3.31 kcal/mol  [=(1)+(2)+(3)-(4)]
USER    
USER    (1) Final Intermolecular Energy     =   -3.84 kcal/mol
USER        vdW + Hbond + desolv Energy     =   -3.61 kcal/mol
USER        Electrostatic Energy            =   -0.23 kcal/mol
USER    (2) Final Total Internal Energy     =  -13.03 kcal/mol
USER    (3) Torsional Free Energy           =   +7.16 kcal/mol
USER    (4) Unbound System's Energy  [=(2)] =  -13.03 kcal/mol
USER    
USER    
USER  
USER    DPF = D:/Protein_go_brrr/autodock/final/mut_Y35F/IHP/dock.dpf
USER    NEWDPF move	IHP_ideal_opt.pdbqt
USER    NEWDPF about	0.035000 0.082000 -0.065000
USER    NEWDPF tran0	-13.986344 8.413484 4.909774
USER    NEWDPF axisangle0	0.167886 0.105520 -0.980143 173.326778
USER    NEWDPF quaternion0	0.167601 0.105341 -0.978481 0.058202
USER    NEWDPF dihe0	121.43 125.72 176.99 -29.96 -22.23 -70.55 -94.39 -157.54 84.74 -22.73 117.39 149.99 -72.81 175.72 -28.15 -29.74 -138.25 27.32 -151.12 19.01 12.28 9.86 -15.50 -180.00 
USER  
USER                              x       y       z    vdW   Elec        q     RMS 
ATOM      1  C   UNL d   1     -15.360   9.315   5.444 +0.00 +0.05    +0.194    13.166
ATOM      2  C   UNL d   1     -14.002   9.978   5.679 -0.02 +0.06    +0.194    13.166
ATOM      3  C   UNL d   1     -12.967   8.980   6.202 -0.10 +0.10    +0.194    13.166
ATOM      4  C   UNL d   1     -12.854   7.724   5.341 -0.10 +0.09    +0.194    13.166
ATOM      5  C   UNL d   1     -14.194   7.093   4.986 -0.07 +0.08    +0.194    13.166
ATOM      6  C   UNL d   1     -15.249   8.100   4.521 -0.01 +0.05    +0.194    13.166
ATOM      7  O   UNL d   1     -16.213  10.263   4.799 +0.00 -0.04    -0.278    13.166
ATOM      8  P   UNL d   1     -16.161  10.371   3.206 +0.01 +0.03    +0.473    13.166
ATOM      9  O   UNL d   1     -14.916   9.850   2.578 -0.01 -0.01    -0.228    13.166
ATOM     10  O   UNL d   1     -17.475   9.607   2.722 +0.00 -0.02    -0.303    13.166
ATOM     11  H   UNL d   1     -17.641   8.842   3.305 +0.00 +0.02    +0.222    13.166
ATOM     12  O   UNL d   1     -16.519  11.885   2.882 +0.00 -0.01    -0.303    13.166
ATOM     13  H   UNL d   1     -15.755  12.494   2.993 +0.01 +0.00    +0.222    13.166
ATOM     14  O   UNL d   1     -13.527  10.522   4.441 -0.02 -0.04    -0.278    13.166
ATOM     15  P   UNL d   1     -12.582  11.812   4.541 -0.04 +0.02    +0.473    13.166
ATOM     16  O   UNL d   1     -12.961  12.989   3.698 -0.07 +0.01    -0.228    13.166
ATOM     17  O   UNL d   1     -12.553  12.151   6.097 -0.07 -0.03    -0.303    13.166
ATOM     18  H   UNL d   1     -11.913  11.584   6.569 +0.09 +0.05    +0.222    13.166
ATOM     19  O   UNL d   1     -11.114  11.246   4.310 -0.14 -0.01    -0.303    13.166
ATOM     20  H   UNL d   1     -10.694  10.979   5.149 +0.10 +0.02    +0.222    13.166
ATOM     21  O   UNL d   1     -16.506   7.429   4.561 +0.00 -0.06    -0.278    13.166
ATOM     22  P   UNL d   1     -17.025   6.642   3.274 +0.01 +0.07    +0.473    13.166
ATOM     23  O   UNL d   1     -16.143   6.599   2.072 -0.01 -0.03    -0.228    13.166
ATOM     24  O   UNL d   1     -17.388   5.219   3.887 +0.00 -0.05    -0.303    13.166
ATOM     25  H   UNL d   1     -16.574   4.654   3.858 +0.04 +0.05    +0.222    13.166
ATOM     26  O   UNL d   1     -18.475   7.290   3.059 +0.00 -0.03    -0.303    13.166
ATOM     27  H   UNL d   1     -18.489   7.774   2.208 +0.00 +0.01    +0.222    13.166
ATOM     28  O   UNL d   1     -11.692   9.605   6.125 -0.14 -0.11    -0.278    13.166
ATOM     29  P   UNL d   1     -10.816   9.811   7.440 -0.22 +0.27    +0.473    13.166
ATOM     30  O   UNL d   1     -11.480  10.553   8.542 -0.25 -0.22    -0.228    13.166
ATOM     31  O   UNL d   1     -10.396   8.295   7.735 -0.30 -0.23    -0.303    13.166
ATOM     32  H   UNL d   1     -11.182   7.719   7.597 +0.11 +0.22    +0.222    13.166
ATOM     33  O   UNL d   1      -9.476  10.440   6.854 -0.34 -0.03    -0.303    13.166
ATOM     34  H   UNL d   1      -8.800   9.725   6.759 -0.40 -0.07    +0.222    13.166
ATOM     35  O   UNL d   1     -13.933   6.223   3.887 -0.05 -0.10    -0.278    13.166
ATOM     36  P   UNL d   1     -14.121   4.647   4.047 -0.05 +0.20    +0.473    13.166
ATOM     37  O   UNL d   1     -12.889   3.885   4.420 -0.71 -0.14    -0.228    13.166
ATOM     38  O   UNL d   1     -15.291   4.566   5.124 -0.06 -0.14    -0.303    13.166
ATOM     39  H   UNL d   1     -15.716   5.447   5.203 +0.04 +0.09    +0.222    13.166
ATOM     40  O   UNL d   1     -14.830   4.249   2.680 -0.04 -0.07    -0.303    13.166
ATOM     41  H   UNL d   1     -15.720   4.658   2.599 +0.04 +0.04    +0.222    13.166
ATOM     42  O   UNL d   1     -12.125   6.760   6.108 -0.15 -0.21    -0.278    13.166
ATOM     43  P   UNL d   1     -12.811   6.126   7.402 -0.13 +0.60    +0.473    13.166
ATOM     44  O   UNL d   1     -13.902   5.136   7.185 -0.47 -0.36    -0.228    13.166
ATOM     45  O   UNL d   1     -11.566   5.555   8.212 -0.23 -0.48    -0.303    13.166
ATOM     46  H   UNL d   1     -10.827   6.195   8.231 +0.14 +0.27    +0.222    13.166
ATOM     47  O   UNL d   1     -13.205   7.411   8.274 -0.08 -0.47    -0.303    13.166
ATOM     48  H   UNL d   1     -12.556   8.126   8.108 +0.07 +0.35    +0.222    13.166
TER
ENDMDL
MODEL       75
USER    Run = 75
USER    Cluster Rank = 57
USER    Number of conformations in this cluster = 1
USER  
USER    RMSD from reference structure       = 20.179 A
USER  
USER    Estimated Free Energy of Binding    =   +3.32 kcal/mol  [=(1)+(2)+(3)-(4)]
USER    
USER    (1) Final Intermolecular Energy     =   -3.84 kcal/mol
USER        vdW + Hbond + desolv Energy     =   -3.77 kcal/mol
USER        Electrostatic Energy            =   -0.07 kcal/mol
USER    (2) Final Total Internal Energy     =  -14.10 kcal/mol
USER    (3) Torsional Free Energy           =   +7.16 kcal/mol
USER    (4) Unbound System's Energy  [=(2)] =  -14.10 kcal/mol
USER    
USER    
USER  
USER    DPF = D:/Protein_go_brrr/autodock/final/mut_Y35F/IHP/dock.dpf
USER    NEWDPF move	IHP_ideal_opt.pdbqt
USER    NEWDPF about	0.035000 0.082000 -0.065000
USER    NEWDPF tran0	12.631811 9.961477 -16.809417
USER    NEWDPF axisangle0	0.383766 -0.690768 0.612833 166.512326
USER    NEWDPF quaternion0	0.381110 -0.685988 0.608593 0.117431
USER    NEWDPF dihe0	180.00 29.50 63.22 86.60 21.75 -157.45 55.01 -80.89 104.11 76.15 180.00 145.28 59.49 121.55 -48.82 112.66 88.14 173.45 24.41 -15.94 179.74 -12.97 2.90 179.22 
USER  
USER                              x       y       z    vdW   Elec        q     RMS 
ATOM      1  C   UNL d   1      12.609   8.565 -15.792 -0.13 -0.04    +0.194    20.179
ATOM      2  C   UNL d   1      13.535   9.696 -15.341 -0.11 -0.05    +0.194    20.179
ATOM      3  C   UNL d   1      14.316  10.292 -16.515 -0.07 -0.04    +0.194    20.179
ATOM      4  C   UNL d   1      13.423  10.707 -17.682 -0.02 -0.02    +0.194    20.179
ATOM      5  C   UNL d   1      12.405   9.650 -18.091 -0.02 -0.02    +0.194    20.179
ATOM      6  C   UNL d   1      11.668   9.011 -16.912 -0.05 -0.02    +0.194    20.179
ATOM      7  O   UNL d   1      11.797   8.184 -14.680 -0.14 +0.05    -0.278    20.179
ATOM      8  P   UNL d   1      12.234   6.908 -13.823 -0.34 -0.10    +0.473    20.179
ATOM      9  O   UNL d   1      12.704   7.207 -12.442 -0.93 +0.06    -0.228    20.179
ATOM     10  O   UNL d   1      10.951   5.961 -13.858 -0.35 +0.04    -0.303    20.179
ATOM     11  H   UNL d   1      10.397   6.189 -14.628 +0.10 -0.04    +0.222    20.179
ATOM     12  O   UNL d   1      13.256   6.119 -14.748 -0.19 +0.05    -0.303    20.179
ATOM     13  H   UNL d   1      13.222   6.404 -15.690 +0.06 -0.03    +0.222    20.179
ATOM     14  O   UNL d   1      12.748  10.734 -14.744 -0.06 +0.05    -0.278    20.179
ATOM     15  P   UNL d   1      12.999  11.016 -13.187 -0.13 -0.10    +0.473    20.179
ATOM     16  O   UNL d   1      12.228  12.144 -12.576 -0.11 +0.04    -0.228    20.179
ATOM     17  O   UNL d   1      12.704   9.616 -12.487 -0.48 +0.09    -0.303    20.179
ATOM     18  H   UNL d   1      12.008   9.124 -12.964 +0.11 -0.04    +0.222    20.179
ATOM     19  O   UNL d   1      14.581  11.114 -13.052 -0.15 +0.07    -0.303    20.179
ATOM     20  H   UNL d   1      14.996  11.405 -13.885 +0.05 -0.04    +0.222    20.179
ATOM     21  O   UNL d   1      11.029   7.839 -17.412 -0.03 +0.03    -0.278    20.179
ATOM     22  P   UNL d   1      11.886   6.519 -17.672 -0.06 -0.04    +0.473    20.179
ATOM     23  O   UNL d   1      13.366   6.652 -17.792 -0.11 +0.02    -0.228    20.179
ATOM     24  O   UNL d   1      11.395   5.574 -16.488 -0.12 +0.02    -0.303    20.179
ATOM     25  H   UNL d   1      11.365   6.112 -15.656 +0.09 -0.02    +0.222    20.179
ATOM     26  O   UNL d   1      11.132   5.884 -18.936 -0.03 +0.02    -0.303    20.179
ATOM     27  H   UNL d   1      10.720   6.602 -19.459 +0.02 -0.02    +0.222    20.179
ATOM     28  O   UNL d   1      14.924  11.493 -16.060 -0.04 +0.04    -0.278    20.179
ATOM     29  P   UNL d   1      16.446  11.496 -15.590 -0.07 -0.07    +0.473    20.179
ATOM     30  O   UNL d   1      17.448  11.701 -16.667 -0.03 +0.03    -0.228    20.179
ATOM     31  O   UNL d   1      16.380  12.606 -14.438 -0.04 +0.04    -0.303    20.179
ATOM     32  H   UNL d   1      16.444  12.155 -13.564 +0.04 -0.03    +0.222    20.179
ATOM     33  O   UNL d   1      16.543  10.138 -14.765 +0.05 +0.08    -0.303    20.179
ATOM     34  H   UNL d   1      15.637   9.873 -14.474 -0.46 -0.10    +0.222    20.179
ATOM     35  O   UNL d   1      11.429  10.335 -18.874 -0.00 +0.02    -0.278    20.179
ATOM     36  P   UNL d   1      10.933   9.720 -20.259 -0.00 -0.03    +0.473    20.179
ATOM     37  O   UNL d   1       9.451   9.697 -20.460 -0.00 +0.01    -0.228    20.179
ATOM     38  O   UNL d   1      11.722  10.614 -21.315 +0.00 +0.02    -0.303    20.179
ATOM     39  H   UNL d   1      12.600  10.849 -20.944 +0.00 -0.01    +0.222    20.179
ATOM     40  O   UNL d   1      11.689   8.321 -20.301 -0.00 +0.02    -0.303    20.179
ATOM     41  H   UNL d   1      11.781   7.931 -19.403 +0.01 -0.02    +0.222    20.179
ATOM     42  O   UNL d   1      14.283  10.920 -18.807 -0.01 +0.03    -0.278    20.179
ATOM     43  P   UNL d   1      15.024   9.667 -19.459 -0.00 -0.05    +0.473    20.179
ATOM     44  O   UNL d   1      16.430   9.860 -19.912 -0.01 +0.02    -0.228    20.179
ATOM     45  O   UNL d   1      14.846   8.540 -18.351 -0.04 +0.04    -0.303    20.179
ATOM     46  H   UNL d   1      14.192   7.867 -18.626 +0.03 -0.03    +0.222    20.179
ATOM     47  O   UNL d   1      13.995   9.180 -20.588 -0.00 +0.02    -0.303    20.179
ATOM     48  H   UNL d   1      13.079   9.307 -20.265 +0.00 -0.02    +0.222    20.179
TER
ENDMDL
MODEL       72
USER    Run = 72
USER    Cluster Rank = 58
USER    Number of conformations in this cluster = 1
USER  
USER    RMSD from reference structure       = 18.551 A
USER  
USER    Estimated Free Energy of Binding    =   +3.33 kcal/mol  [=(1)+(2)+(3)-(4)]
USER    
USER    (1) Final Intermolecular Energy     =   -3.83 kcal/mol
USER        vdW + Hbond + desolv Energy     =   -3.61 kcal/mol
USER        Electrostatic Energy            =   -0.21 kcal/mol
USER    (2) Final Total Internal Energy     =  -11.19 kcal/mol
USER    (3) Torsional Free Energy           =   +7.16 kcal/mol
USER    (4) Unbound System's Energy  [=(2)] =  -11.19 kcal/mol
USER    
USER    
USER  
USER    DPF = D:/Protein_go_brrr/autodock/final/mut_Y35F/IHP/dock.dpf
USER    NEWDPF move	IHP_ideal_opt.pdbqt
USER    NEWDPF about	0.035000 0.082000 -0.065000
USER    NEWDPF tran0	-19.967247 -9.727406 -2.604557
USER    NEWDPF axisangle0	0.152081 0.953824 -0.259020 -147.877531
USER    NEWDPF quaternion0	0.146145 0.916593 -0.248910 -0.276665
USER    NEWDPF dihe0	134.55 -180.00 -171.91 -34.29 143.44 125.80 -35.10 -0.52 96.28 3.70 15.50 -101.63 131.04 -179.94 43.63 178.91 -101.82 -97.20 -3.32 15.21 -20.76 18.90 -180.00 -113.39 
USER  
USER                              x       y       z    vdW   Elec        q     RMS 
ATOM      1  C   UNL d   1     -20.991 -10.729  -3.570 -0.01 -0.02    +0.194    18.551
ATOM      2  C   UNL d   1     -20.474 -11.364  -2.277 -0.02 -0.03    +0.194    18.551
ATOM      3  C   UNL d   1     -18.992 -11.059  -2.050 -0.08 -0.05    +0.194    18.551
ATOM      4  C   UNL d   1     -18.665  -9.570  -2.134 -0.12 -0.07    +0.194    18.551
ATOM      5  C   UNL d   1     -19.259  -8.871  -3.350 -0.05 -0.03    +0.194    18.551
ATOM      6  C   UNL d   1     -20.724  -9.224  -3.613 -0.01 -0.01    +0.194    18.551
ATOM      7  O   UNL d   1     -22.408 -10.912  -3.620 -0.00 +0.02    -0.278    18.551
ATOM      8  P   UNL d   1     -23.039 -11.605  -4.914 +0.00 -0.02    +0.473    18.551
ATOM      9  O   UNL d   1     -24.524 -11.702  -4.917 +0.00 +0.01    -0.228    18.551
ATOM     10  O   UNL d   1     -22.463 -10.748  -6.131 -0.00 +0.01    -0.303    18.551
ATOM     11  H   UNL d   1     -22.212  -9.860  -5.815 +0.00 -0.01    +0.222    18.551
ATOM     12  O   UNL d   1     -22.253 -12.977  -5.072 -0.00 +0.01    -0.303    18.551
ATOM     13  H   UNL d   1     -22.845 -13.740  -5.259 +0.00 -0.01    +0.222    18.551
ATOM     14  O   UNL d   1     -21.222 -10.844  -1.171 -0.02 +0.05    -0.278    18.551
ATOM     15  P   UNL d   1     -21.471 -11.843   0.056 -0.04 -0.16    +0.473    18.551
ATOM     16  O   UNL d   1     -22.894 -12.064   0.464 -0.03 +0.06    -0.228    18.551
ATOM     17  O   UNL d   1     -20.738 -13.187  -0.383 -0.06 +0.12    -0.303    18.551
ATOM     18  H   UNL d   1     -19.818 -13.209  -0.056 +0.06 -0.12    +0.222    18.551
ATOM     19  O   UNL d   1     -20.504 -11.312   1.202 -0.06 +0.19    -0.303    18.551
ATOM     20  H   UNL d   1     -19.647 -11.777   1.195 -0.18 -0.22    +0.222    18.551
ATOM     21  O   UNL d   1     -21.023  -8.784  -4.936 -0.00 +0.01    -0.278    18.551
ATOM     22  P   UNL d   1     -22.222  -7.760  -5.177 +0.01 -0.00    +0.473    18.551
ATOM     23  O   UNL d   1     -22.022  -6.335  -4.782 +0.00 -0.00    -0.228    18.551
ATOM     24  O   UNL d   1     -22.538  -7.986  -6.721 +0.00 +0.00    -0.303    18.551
ATOM     25  H   UNL d   1     -23.054  -8.828  -6.809 +0.00 -0.00    +0.222    18.551
ATOM     26  O   UNL d   1     -23.446  -8.519  -4.474 +0.00 +0.01    -0.303    18.551
ATOM     27  H   UNL d   1     -23.465  -9.449  -4.778 +0.00 -0.01    +0.222    18.551
ATOM     28  O   UNL d   1     -18.676 -11.440  -0.718 -0.16 +0.12    -0.278    18.551
ATOM     29  P   UNL d   1     -17.417 -12.372  -0.425 -0.20 -0.18    +0.473    18.551
ATOM     30  O   UNL d   1     -16.803 -12.215   0.918 -0.14 +0.12    -0.228    18.551
ATOM     31  O   UNL d   1     -18.042 -13.803  -0.775 -0.13 +0.09    -0.303    18.551
ATOM     32  H   UNL d   1     -18.866 -13.667  -1.298 +0.06 -0.06    +0.222    18.551
ATOM     33  O   UNL d   1     -16.485 -12.078  -1.682 -0.18 +0.06    -0.303    18.551
ATOM     34  H   UNL d   1     -16.280 -11.111  -1.711 +0.12 -0.07    +0.222    18.551
ATOM     35  O   UNL d   1     -19.209  -7.476  -3.058 -0.05 +0.01    -0.278    18.551
ATOM     36  P   UNL d   1     -19.760  -6.926  -1.666 -0.07 +0.07    +0.473    18.551
ATOM     37  O   UNL d   1     -21.190  -7.246  -1.366 -0.03 -0.01    -0.228    18.551
ATOM     38  O   UNL d   1     -18.719  -7.549  -0.634 -0.17 +0.08    -0.303    18.551
ATOM     39  H   UNL d   1     -17.865  -7.704  -1.093 -0.21 -0.31    +0.222    18.551
ATOM     40  O   UNL d   1     -19.362  -5.387  -1.728 -0.60 -0.20    -0.303    18.551
ATOM     41  H   UNL d   1     -18.484  -5.254  -2.150 +0.04 +0.17    +0.222    18.551
ATOM     42  O   UNL d   1     -17.241  -9.464  -2.241 -0.15 +0.18    -0.278    18.551
ATOM     43  P   UNL d   1     -16.621  -8.454  -3.309 -0.11 -0.19    +0.473    18.551
ATOM     44  O   UNL d   1     -17.110  -8.552  -4.712 -0.16 +0.02    -0.228    18.551
ATOM     45  O   UNL d   1     -16.868  -7.035  -2.631 -0.12 +0.14    -0.303    18.551
ATOM     46  H   UNL d   1     -17.817  -6.887  -2.447 -0.05 -0.03    +0.222    18.551
ATOM     47  O   UNL d   1     -15.041  -8.638  -3.112 -0.32 +0.15    -0.303    18.551
ATOM     48  H   UNL d   1     -14.756  -9.468  -3.548 -0.38 -0.09    +0.222    18.551
TER
ENDMDL
MODEL       60
USER    Run = 60
USER    Cluster Rank = 59
USER    Number of conformations in this cluster = 1
USER  
USER    RMSD from reference structure       = 22.392 A
USER  
USER    Estimated Free Energy of Binding    =   +3.34 kcal/mol  [=(1)+(2)+(3)-(4)]
USER    
USER    (1) Final Intermolecular Energy     =   -3.82 kcal/mol
USER        vdW + Hbond + desolv Energy     =   -3.31 kcal/mol
USER        Electrostatic Energy            =   -0.51 kcal/mol
USER    (2) Final Total Internal Energy     =  -14.69 kcal/mol
USER    (3) Torsional Free Energy           =   +7.16 kcal/mol
USER    (4) Unbound System's Energy  [=(2)] =  -14.69 kcal/mol
USER    
USER    
USER  
USER    DPF = D:/Protein_go_brrr/autodock/final/mut_Y35F/IHP/dock.dpf
USER    NEWDPF move	IHP_ideal_opt.pdbqt
USER    NEWDPF about	0.035000 0.082000 -0.065000
USER    NEWDPF tran0	-5.814457 19.193939 15.630527
USER    NEWDPF axisangle0	0.997628 -0.062715 0.028387 -70.554540
USER    NEWDPF quaternion0	0.576164 -0.036220 0.016394 -0.816367
USER    NEWDPF dihe0	-116.65 -180.00 119.60 -48.57 123.08 121.50 -117.48 -26.40 110.92 1.51 37.56 -132.00 -117.89 90.30 -136.65 -155.28 -142.70 137.70 42.76 -9.67 -7.49 3.77 -10.25 -2.47 
USER  
USER                              x       y       z    vdW   Elec        q     RMS 
ATOM      1  C   UNL d   1      -4.536  18.132  15.158 -0.05 -0.01    +0.194    22.392
ATOM      2  C   UNL d   1      -5.711  18.229  14.182 -0.06 -0.05    +0.194    22.392
ATOM      3  C   UNL d   1      -7.056  18.209  14.911 -0.02 -0.05    +0.194    22.392
ATOM      4  C   UNL d   1      -7.149  19.243  16.030 +0.00 -0.03    +0.194    22.392
ATOM      5  C   UNL d   1      -5.944  19.260  16.961 +0.00 -0.01    +0.194    22.392
ATOM      6  C   UNL d   1      -4.598  19.217  16.233 +0.00 -0.02    +0.194    22.392
ATOM      7  O   UNL d   1      -3.327  18.331  14.422 -0.05 +0.08    -0.278    22.392
ATOM      8  P   UNL d   1      -2.736  17.103  13.588 -0.16 -0.22    +0.473    22.392
ATOM      9  O   UNL d   1      -2.259  15.955  14.408 -0.45 -0.01    -0.228    22.392
ATOM     10  O   UNL d   1      -3.914  16.712  12.586 -0.19 +0.12    -0.303    22.392
ATOM     11  H   UNL d   1      -3.861  17.268  11.787 -0.40 -0.19    +0.222    22.392
ATOM     12  O   UNL d   1      -1.665  17.747  12.607 -0.11 +0.46    -0.303    22.392
ATOM     13  H   UNL d   1      -0.820  17.244  12.575 -0.41 -0.70    +0.222    22.392
ATOM     14  O   UNL d   1      -5.608  19.455  13.447 -0.02 +0.12    -0.278    22.392
ATOM     15  P   UNL d   1      -5.529  19.329  11.853 -0.10 -0.33    +0.473    22.392
ATOM     16  O   UNL d   1      -6.184  20.417  11.060 -0.10 +0.16    -0.228    22.392
ATOM     17  O   UNL d   1      -3.971  19.198  11.550 -0.10 +0.20    -0.303    22.392
ATOM     18  H   UNL d   1      -3.490  18.853  12.327 +0.07 -0.14    +0.222    22.392
ATOM     19  O   UNL d   1      -6.039  17.854  11.545 -0.24 +0.36    -0.303    22.392
ATOM     20  H   UNL d   1      -5.311  17.273  11.260 -0.29 -0.27    +0.222    22.392
ATOM     21  O   UNL d   1      -3.611  18.895  17.210 +0.00 +0.02    -0.278    22.392
ATOM     22  P   UNL d   1      -2.557  20.002  17.667 +0.02 -0.06    +0.473    22.392
ATOM     23  O   UNL d   1      -1.151  19.876  17.187 -0.00 +0.05    -0.228    22.392
ATOM     24  O   UNL d   1      -3.291  21.347  17.237 +0.00 +0.04    -0.303    22.392
ATOM     25  H   UNL d   1      -4.176  21.372  17.683 +0.00 -0.02    +0.222    22.392
ATOM     26  O   UNL d   1      -2.760  20.008  19.257 +0.00 +0.02    -0.303    22.392
ATOM     27  H   UNL d   1      -3.710  20.130  19.460 +0.00 -0.01    +0.222    22.392
ATOM     28  O   UNL d   1      -8.057  18.578  13.971 -0.05 +0.16    -0.278    22.392
ATOM     29  P   UNL d   1      -9.172  17.530  13.530 -0.01 -0.40    +0.473    22.392
ATOM     30  O   UNL d   1     -10.182  18.037  12.565 -0.10 +0.30    -0.228    22.392
ATOM     31  O   UNL d   1      -8.242  16.323  13.040 -0.11 +0.31    -0.303    22.392
ATOM     32  H   UNL d   1      -7.742  16.615  12.243 -0.44 -0.45    +0.222    22.392
ATOM     33  O   UNL d   1      -9.715  17.009  14.933 -0.01 +0.09    -0.303    22.392
ATOM     34  H   UNL d   1      -9.665  17.746  15.590 +0.02 -0.05    +0.222    22.392
ATOM     35  O   UNL d   1      -6.007  20.505  17.654 +0.00 +0.02    -0.278    22.392
ATOM     36  P   UNL d   1      -6.115  20.535  19.245 +0.00 -0.03    +0.473    22.392
ATOM     37  O   UNL d   1      -7.493  20.725  19.795 +0.00 +0.01    -0.228    22.392
ATOM     38  O   UNL d   1      -5.435  19.151  19.644 +0.00 +0.01    -0.303    22.392
ATOM     39  H   UNL d   1      -4.647  19.005  19.078 +0.01 -0.00    +0.222    22.392
ATOM     40  O   UNL d   1      -5.025  21.625  19.638 +0.00 +0.02    -0.303    22.392
ATOM     41  H   UNL d   1      -4.213  21.543  19.089 +0.00 -0.02    +0.222    22.392
ATOM     42  O   UNL d   1      -8.289  18.894  16.823 +0.00 +0.03    -0.278    22.392
ATOM     43  P   UNL d   1      -9.544  19.877  16.844 +0.01 -0.06    +0.473    22.392
ATOM     44  O   UNL d   1     -10.680  19.522  17.740 +0.00 +0.02    -0.228    22.392
ATOM     45  O   UNL d   1      -8.878  21.287  17.164 +0.00 +0.03    -0.303    22.392
ATOM     46  H   UNL d   1      -8.122  21.194  17.777 +0.00 -0.02    +0.222    22.392
ATOM     47  O   UNL d   1      -9.911  20.035  15.291 +0.00 +0.07    -0.303    22.392
ATOM     48  H   UNL d   1      -9.924  19.151  14.871 +0.01 -0.07    +0.222    22.392
TER
ENDMDL
MODEL       82
USER    Run = 82
USER    Cluster Rank = 60
USER    Number of conformations in this cluster = 1
USER  
USER    RMSD from reference structure       = 20.738 A
USER  
USER    Estimated Free Energy of Binding    =   +3.39 kcal/mol  [=(1)+(2)+(3)-(4)]
USER    
USER    (1) Final Intermolecular Energy     =   -3.77 kcal/mol
USER        vdW + Hbond + desolv Energy     =   -3.19 kcal/mol
USER        Electrostatic Energy            =   -0.57 kcal/mol
USER    (2) Final Total Internal Energy     =  -15.40 kcal/mol
USER    (3) Torsional Free Energy           =   +7.16 kcal/mol
USER    (4) Unbound System's Energy  [=(2)] =  -15.40 kcal/mol
USER    
USER    
USER  
USER    DPF = D:/Protein_go_brrr/autodock/final/mut_Y35F/IHP/dock.dpf
USER    NEWDPF move	IHP_ideal_opt.pdbqt
USER    NEWDPF about	0.035000 0.082000 -0.065000
USER    NEWDPF tran0	3.884526 14.362731 18.615405
USER    NEWDPF axisangle0	-0.873326 -0.332631 -0.355891 -22.587194
USER    NEWDPF quaternion0	-0.171029 -0.065141 -0.069696 -0.980637
USER    NEWDPF dihe0	119.63 102.31 -170.26 50.59 153.16 -150.11 -0.01 -62.61 -38.56 38.82 47.66 172.89 -71.88 161.16 61.10 88.55 -38.16 172.77 -150.17 -15.81 13.58 -20.95 172.60 5.96 
USER  
USER                              x       y       z    vdW   Elec        q     RMS 
ATOM      1  C   UNL d   1       4.891  13.664  19.833 +0.00 -0.01    +0.194    20.738
ATOM      2  C   UNL d   1       3.577  12.931  19.562 -0.02 -0.06    +0.194    20.738
ATOM      3  C   UNL d   1       2.406  13.904  19.411 -0.04 -0.09    +0.194    20.738
ATOM      4  C   UNL d   1       2.670  15.010  18.392 -0.05 -0.08    +0.194    20.738
ATOM      5  C   UNL d   1       4.022  15.693  18.554 -0.01 -0.03    +0.194    20.738
ATOM      6  C   UNL d   1       5.185  14.721  18.767 -0.01 +0.00    +0.194    20.738
ATOM      7  O   UNL d   1       5.953  12.708  19.789 +0.00 -0.01    -0.278    20.738
ATOM      8  P   UNL d   1       6.626  12.386  18.377 -0.01 +0.12    +0.473    20.738
ATOM      9  O   UNL d   1       5.802  12.741  17.189 -0.07 -0.06    -0.228    20.738
ATOM     10  O   UNL d   1       8.021  13.159  18.427 -0.06 -0.17    -0.303    20.738
ATOM     11  H   UNL d   1       7.903  14.016  18.879 +0.01 +0.10    +0.222    20.738
ATOM     12  O   UNL d   1       7.084  10.867  18.474 -0.01 -0.05    -0.303    20.738
ATOM     13  H   UNL d   1       6.344  10.254  18.685 +0.02 +0.01    +0.222    20.738
ATOM     14  O   UNL d   1       3.704  12.178  18.350 -0.06 +0.12    -0.278    20.738
ATOM     15  P   UNL d   1       3.608  10.585  18.483 -0.07 -0.19    +0.473    20.738
ATOM     16  O   UNL d   1       4.497   9.781  17.586 -0.04 +0.04    -0.228    20.738
ATOM     17  O   UNL d   1       3.878  10.309  20.029 -0.02 +0.06    -0.303    20.738
ATOM     18  H   UNL d   1       3.041  10.253  20.528 +0.03 -0.05    +0.222    20.738
ATOM     19  O   UNL d   1       2.053  10.270  18.370 -0.16 +0.28    -0.303    20.738
ATOM     20  H   UNL d   1       1.518  11.084  18.393 -0.52 -0.36    +0.222    20.738
ATOM     21  O   UNL d   1       6.287  15.494  19.237 -0.00 -0.04    -0.278    20.738
ATOM     22  P   UNL d   1       7.295  16.154  18.191 -0.03 +0.18    +0.473    20.738
ATOM     23  O   UNL d   1       7.011  17.539  17.717 -0.02 -0.05    -0.228    20.738
ATOM     24  O   UNL d   1       8.694  15.975  18.928 -0.02 -0.11    -0.303    20.738
ATOM     25  H   UNL d   1       9.055  15.083  18.691 +0.01 +0.12    +0.222    20.738
ATOM     26  O   UNL d   1       7.372  15.024  17.056 -0.39 -0.37    -0.303    20.738
ATOM     27  H   UNL d   1       6.494  14.601  16.964 +0.03 +0.16    +0.222    20.738
ATOM     28  O   UNL d   1       1.303  13.171  18.893 -0.07 +0.30    -0.278    20.738
ATOM     29  P   UNL d   1       0.276  12.458  19.881 -0.03 -0.35    +0.473    20.738
ATOM     30  O   UNL d   1      -0.481  13.365  20.782 -0.03 +0.08    -0.228    20.738
ATOM     31  O   UNL d   1      -0.575  11.603  18.829 +0.06 +0.47    -0.303    20.738
ATOM     32  H   UNL d   1       0.048  11.084  18.270 -0.45 -0.51    +0.222    20.738
ATOM     33  O   UNL d   1       1.191  11.354  20.574 -0.03 +0.13    -0.303    20.738
ATOM     34  H   UNL d   1       2.092  11.382  20.168 +0.03 -0.10    +0.222    20.738
ATOM     35  O   UNL d   1       4.263  16.372  17.324 -0.02 +0.04    -0.278    20.738
ATOM     36  P   UNL d   1       4.263  15.567  15.947 -0.10 -0.11    +0.473    20.738
ATOM     37  O   UNL d   1       3.858  14.130  16.040 -0.17 +0.08    -0.228    20.738
ATOM     38  O   UNL d   1       3.302  16.462  15.046 -0.05 +0.31    -0.303    20.738
ATOM     39  H   UNL d   1       2.453  15.986  14.912 -0.49 -0.45    +0.222    20.738
ATOM     40  O   UNL d   1       5.716  15.872  15.375 +0.01 -0.13    -0.303    20.738
ATOM     41  H   UNL d   1       6.215  16.487  15.957 +0.05 +0.10    +0.222    20.738
ATOM     42  O   UNL d   1       1.667  16.010  18.596 -0.02 +0.11    -0.278    20.738
ATOM     43  P   UNL d   1       0.468  16.124  17.550 -0.08 -0.26    +0.473    20.738
ATOM     44  O   UNL d   1      -0.007  17.491  17.196 -0.05 +0.10    -0.228    20.738
ATOM     45  O   UNL d   1       1.003  15.280  16.312 -0.19 +0.33    -0.303    20.738
ATOM     46  H   UNL d   1       1.981  15.254  16.292 +0.04 -0.22    +0.222    20.738
ATOM     47  O   UNL d   1      -0.643  15.142  18.158 -0.12 +0.17    -0.303    20.738
ATOM     48  H   UNL d   1      -0.259  14.646  18.910 +0.02 -0.14    +0.222    20.738
TER
ENDMDL
MODEL       22
USER    Run = 22
USER    Cluster Rank = 61
USER    Number of conformations in this cluster = 1
USER  
USER    RMSD from reference structure       = 21.627 A
USER  
USER    Estimated Free Energy of Binding    =   +3.43 kcal/mol  [=(1)+(2)+(3)-(4)]
USER    
USER    (1) Final Intermolecular Energy     =   -3.73 kcal/mol
USER        vdW + Hbond + desolv Energy     =   -3.23 kcal/mol
USER        Electrostatic Energy            =   -0.51 kcal/mol
USER    (2) Final Total Internal Energy     =  -12.56 kcal/mol
USER    (3) Torsional Free Energy           =   +7.16 kcal/mol
USER    (4) Unbound System's Energy  [=(2)] =  -12.56 kcal/mol
USER    
USER    
USER  
USER    DPF = D:/Protein_go_brrr/autodock/final/mut_Y35F/IHP/dock.dpf
USER    NEWDPF move	IHP_ideal_opt.pdbqt
USER    NEWDPF about	0.035000 0.082000 -0.065000
USER    NEWDPF tran0	14.769414 1.691392 -18.915111
USER    NEWDPF axisangle0	0.146944 0.403020 0.903317 51.811667
USER    NEWDPF quaternion0	0.064199 0.176077 0.394653 0.899513
USER    NEWDPF dihe0	95.03 118.46 -176.48 153.19 -27.48 -139.55 -70.00 -24.97 128.28 5.41 107.89 66.57 -82.95 54.85 -61.77 -9.28 27.02 -134.77 63.94 28.08 29.06 -1.30 179.69 0.05 
USER  
USER                              x       y       z    vdW   Elec        q     RMS 
ATOM      1  C   UNL d   1      14.693   0.427 -17.740 -0.23 -0.11    +0.194    21.627
ATOM      2  C   UNL d   1      13.421   0.644 -18.561 -0.12 -0.05    +0.194    21.627
ATOM      3  C   UNL d   1      13.096   2.131 -18.721 -0.07 -0.02    +0.194    21.627
ATOM      4  C   UNL d   1      14.271   2.949 -19.250 -0.10 -0.02    +0.194    21.627
ATOM      5  C   UNL d   1      15.589   2.679 -18.535 -0.16 -0.04    +0.194    21.627
ATOM      6  C   UNL d   1      15.883   1.193 -18.320 -0.19 -0.10    +0.194    21.627
ATOM      7  O   UNL d   1      15.020  -0.964 -17.783 -0.15 +0.30    -0.278    21.627
ATOM      8  P   UNL d   1      13.943  -2.014 -17.245 -0.03 -0.43    +0.473    21.627
ATOM      9  O   UNL d   1      13.076  -1.518 -16.142 -0.20 +0.16    -0.228    21.627
ATOM     10  O   UNL d   1      13.123  -2.430 -18.549 -0.02 +0.11    -0.303    21.627
ATOM     11  H   UNL d   1      12.667  -1.648 -18.912 +0.03 -0.06    +0.222    21.627
ATOM     12  O   UNL d   1      14.771  -3.334 -16.938 -0.07 +0.37    -0.303    21.627
ATOM     13  H   UNL d   1      15.327  -3.261 -16.130 -0.52 -0.54    +0.222    21.627
ATOM     14  O   UNL d   1      13.602   0.074 -19.863 -0.02 +0.07    -0.278    21.627
ATOM     15  P   UNL d   1      12.271  -0.259 -20.690 +0.00 -0.07    +0.473    21.627
ATOM     16  O   UNL d   1      11.995   0.592 -21.889 -0.00 +0.02    -0.228    21.627
ATOM     17  O   UNL d   1      12.415  -1.804 -21.049 -0.00 +0.05    -0.303    21.627
ATOM     18  H   UNL d   1      12.052  -2.366 -20.338 +0.01 -0.04    +0.222    21.627
ATOM     19  O   UNL d   1      11.120  -0.292 -19.592 -0.01 +0.04    -0.303    21.627
ATOM     20  H   UNL d   1      10.679   0.573 -19.507 +0.02 -0.02    +0.222    21.627
ATOM     21  O   UNL d   1      16.937   1.116 -17.363 -0.25 +0.25    -0.278    21.627
ATOM     22  P   UNL d   1      18.424   1.506 -17.789 -0.11 -0.28    +0.473    21.627
ATOM     23  O   UNL d   1      18.843   1.251 -19.198 -0.04 +0.09    -0.228    21.627
ATOM     24  O   UNL d   1      18.504   3.029 -17.334 -0.09 +0.06    -0.303    21.627
ATOM     25  H   UNL d   1      18.263   3.596 -18.110 +0.06 -0.04    +0.222    21.627
ATOM     26  O   UNL d   1      19.290   0.775 -16.655 -0.12 +0.28    -0.303    21.627
ATOM     27  H   UNL d   1      18.963  -0.140 -16.540 -0.52 -0.51    +0.222    21.627
ATOM     28  O   UNL d   1      12.081   2.244 -19.710 -0.05 +0.03    -0.278    21.627
ATOM     29  P   UNL d   1      10.600   2.661 -19.299 -0.04 -0.03    +0.473    21.627
ATOM     30  O   UNL d   1      10.132   2.151 -17.984 -0.10 +0.01    -0.228    21.627
ATOM     31  O   UNL d   1      10.700   4.249 -19.468 -0.03 +0.02    -0.303    21.627
ATOM     32  H   UNL d   1      11.651   4.506 -19.469 +0.03 -0.01    +0.222    21.627
ATOM     33  O   UNL d   1       9.762   2.223 -20.580 -0.01 +0.02    -0.303    21.627
ATOM     34  H   UNL d   1      10.167   1.408 -20.966 +0.01 -0.02    +0.222    21.627
ATOM     35  O   UNL d   1      16.607   3.189 -19.393 -0.05 +0.05    -0.278    21.627
ATOM     36  P   UNL d   1      16.628   2.797 -20.939 +0.01 -0.08    +0.473    21.627
ATOM     37  O   UNL d   1      15.550   3.412 -21.775 -0.01 +0.03    -0.228    21.627
ATOM     38  O   UNL d   1      18.104   3.217 -21.362 -0.00 +0.04    -0.303    21.627
ATOM     39  H   UNL d   1      18.749   2.730 -20.804 +0.01 -0.04    +0.222    21.627
ATOM     40  O   UNL d   1      16.682   1.208 -20.886 -0.00 +0.07    -0.303    21.627
ATOM     41  H   UNL d   1      17.229   0.888 -20.135 +0.03 -0.08    +0.222    21.627
ATOM     42  O   UNL d   1      13.949   4.327 -19.032 -0.09 +0.02    -0.278    21.627
ATOM     43  P   UNL d   1      13.647   5.257 -20.293 -0.02 -0.04    +0.473    21.627
ATOM     44  O   UNL d   1      14.802   5.952 -20.926 -0.01 +0.02    -0.228    21.627
ATOM     45  O   UNL d   1      12.862   4.277 -21.270 -0.01 +0.02    -0.303    21.627
ATOM     46  H   UNL d   1      12.298   3.652 -20.773 +0.02 -0.02    +0.222    21.627
ATOM     47  O   UNL d   1      12.468   6.209 -19.771 -0.02 +0.02    -0.303    21.627
ATOM     48  H   UNL d   1      11.652   6.021 -20.280 +0.01 -0.02    +0.222    21.627
TER
ENDMDL
MODEL       94
USER    Run = 94
USER    Cluster Rank = 62
USER    Number of conformations in this cluster = 2
USER  
USER    RMSD from reference structure       = 13.066 A
USER  
USER    Estimated Free Energy of Binding    =   +3.46 kcal/mol  [=(1)+(2)+(3)-(4)]
USER    
USER    (1) Final Intermolecular Energy     =   -3.70 kcal/mol
USER        vdW + Hbond + desolv Energy     =   -3.54 kcal/mol
USER        Electrostatic Energy            =   -0.15 kcal/mol
USER    (2) Final Total Internal Energy     =  -13.59 kcal/mol
USER    (3) Torsional Free Energy           =   +7.16 kcal/mol
USER    (4) Unbound System's Energy  [=(2)] =  -13.59 kcal/mol
USER    
USER    
USER  
USER    DPF = D:/Protein_go_brrr/autodock/final/mut_Y35F/IHP/dock.dpf
USER    NEWDPF move	IHP_ideal_opt.pdbqt
USER    NEWDPF about	0.035000 0.082000 -0.065000
USER    NEWDPF tran0	13.284934 0.503325 8.809673
USER    NEWDPF axisangle0	0.571000 0.582570 -0.578421 110.731645
USER    NEWDPF quaternion0	0.469818 0.479337 -0.475923 0.568335
USER    NEWDPF dihe0	180.00 -32.08 171.52 15.70 118.09 111.32 -131.04 9.01 -13.45 20.51 122.19 134.03 -119.38 -159.40 -162.78 40.31 172.43 -153.12 50.76 2.08 -0.29 11.24 175.48 9.08 
USER  
USER                              x       y       z    vdW   Elec        q     RMS 
ATOM      1  C   UNL d   1      12.690   1.713   9.890 -0.04 +0.19    +0.194    13.066
ATOM      2  C   UNL d   1      13.020   0.363  10.528 -0.09 +0.09    +0.194    13.066
ATOM      3  C   UNL d   1      12.524  -0.805   9.671 -0.13 +0.07    +0.194    13.066
ATOM      4  C   UNL d   1      12.988  -0.724   8.218 -0.19 +0.06    +0.194    13.066
ATOM      5  C   UNL d   1      12.783   0.643   7.577 -0.13 +0.09    +0.194    13.066
ATOM      6  C   UNL d   1      13.222   1.813   8.459 -0.10 +0.14    +0.194    13.066
ATOM      7  O   UNL d   1      13.332   2.736  10.655 -0.31 -0.25    -0.278    13.066
ATOM      8  P   UNL d   1      12.753   3.075  12.105 -0.05 +0.35    +0.473    13.066
ATOM      9  O   UNL d   1      11.405   3.705  12.115 -0.07 -0.30    -0.228    13.066
ATOM     10  O   UNL d   1      12.800   1.679  12.876 -0.02 -0.12    -0.303    13.066
ATOM     11  H   UNL d   1      13.454   1.093  12.451 +0.01 +0.07    +0.222    13.066
ATOM     12  O   UNL d   1      13.906   3.894  12.829 -0.00 -0.12    -0.303    13.066
ATOM     13  H   UNL d   1      14.639   3.324  13.153 +0.01 +0.06    +0.222    13.066
ATOM     14  O   UNL d   1      14.441   0.250  10.674 -0.01 -0.08    -0.278    13.066
ATOM     15  P   UNL d   1      14.975  -0.274  12.090 +0.01 +0.08    +0.473    13.066
ATOM     16  O   UNL d   1      15.554   0.753  13.012 +0.00 -0.03    -0.228    13.066
ATOM     17  O   UNL d   1      13.724  -1.033  12.719 -0.00 -0.05    -0.303    13.066
ATOM     18  H   UNL d   1      13.592  -1.904  12.297 +0.01 +0.03    +0.222    13.066
ATOM     19  O   UNL d   1      15.936  -1.489  11.727 +0.00 -0.04    -0.303    13.066
ATOM     20  H   UNL d   1      15.543  -2.069  11.048 +0.01 +0.03    +0.222    13.066
ATOM     21  O   UNL d   1      12.662   2.993   7.887 -0.22 -0.33    -0.278    13.066
ATOM     22  P   UNL d   1      13.586   3.972   7.030 -0.12 +0.31    +0.473    13.066
ATOM     23  O   UNL d   1      13.518   5.435   7.315 -0.09 -0.14    -0.228    13.066
ATOM     24  O   UNL d   1      15.024   3.319   7.228 -0.03 -0.11    -0.303    13.066
ATOM     25  H   UNL d   1      14.959   2.357   7.000 +0.07 +0.08    +0.222    13.066
ATOM     26  O   UNL d   1      13.225   3.530   5.531 -0.73 -0.18    -0.303    13.066
ATOM     27  H   UNL d   1      13.489   2.597   5.399 +0.12 +0.09    +0.222    13.066
ATOM     28  O   UNL d   1      13.109  -1.993  10.188 -0.03 -0.06    -0.278    13.066
ATOM     29  P   UNL d   1      12.186  -3.192  10.686 -0.01 +0.08    +0.473    13.066
ATOM     30  O   UNL d   1      10.762  -3.119  10.272 -0.08 -0.03    -0.228    13.066
ATOM     31  O   UNL d   1      13.035  -4.439  10.150 -0.03 -0.07    -0.303    13.066
ATOM     32  H   UNL d   1      12.857  -4.550   9.188 +0.05 +0.07    +0.222    13.066
ATOM     33  O   UNL d   1      12.481  -3.213  12.250 -0.00 -0.03    -0.303    13.066
ATOM     34  H   UNL d   1      12.108  -2.393  12.658 +0.01 +0.03    +0.222    13.066
ATOM     35  O   UNL d   1      13.615   0.655   6.419 -0.27 -0.08    -0.278    13.066
ATOM     36  P   UNL d   1      15.169   0.319   6.541 -0.04 +0.11    +0.473    13.066
ATOM     37  O   UNL d   1      16.072   1.110   5.649 -0.13 -0.05    -0.228    13.066
ATOM     38  O   UNL d   1      15.429   0.539   8.096 -0.03 -0.07    -0.303    13.066
ATOM     39  H   UNL d   1      15.585   1.494   8.264 +0.04 +0.06    +0.222    13.066
ATOM     40  O   UNL d   1      15.189  -1.262   6.369 -0.10 -0.06    -0.303    13.066
ATOM     41  H   UNL d   1      14.313  -1.661   6.569 +0.07 +0.04    +0.222    13.066
ATOM     42  O   UNL d   1      12.196  -1.659   7.478 -0.27 -0.06    -0.278    13.066
ATOM     43  P   UNL d   1      12.837  -3.064   7.077 -0.18 +0.11    +0.473    13.066
ATOM     44  O   UNL d   1      13.195  -3.271   5.646 -0.32 -0.04    -0.228    13.066
ATOM     45  O   UNL d   1      14.067  -3.186   8.079 -0.08 -0.08    -0.303    13.066
ATOM     46  H   UNL d   1      13.796  -3.002   9.001 +0.05 +0.05    +0.222    13.066
ATOM     47  O   UNL d   1      11.807  -4.126   7.693 -0.16 -0.11    -0.303    13.066
ATOM     48  H   UNL d   1      11.596  -3.872   8.616 +0.08 +0.06    +0.222    13.066
TER
ENDMDL
MODEL       97
USER    Run = 97
USER    Cluster Rank = 63
USER    Number of conformations in this cluster = 1
USER  
USER    RMSD from reference structure       = 12.649 A
USER  
USER    Estimated Free Energy of Binding    =   +3.49 kcal/mol  [=(1)+(2)+(3)-(4)]
USER    
USER    (1) Final Intermolecular Energy     =   -3.67 kcal/mol
USER        vdW + Hbond + desolv Energy     =   -3.48 kcal/mol
USER        Electrostatic Energy            =   -0.19 kcal/mol
USER    (2) Final Total Internal Energy     =  -12.24 kcal/mol
USER    (3) Torsional Free Energy           =   +7.16 kcal/mol
USER    (4) Unbound System's Energy  [=(2)] =  -12.24 kcal/mol
USER    
USER    
USER  
USER    DPF = D:/Protein_go_brrr/autodock/final/mut_Y35F/IHP/dock.dpf
USER    NEWDPF move	IHP_ideal_opt.pdbqt
USER    NEWDPF about	0.035000 0.082000 -0.065000
USER    NEWDPF tran0	-16.562746 1.643588 0.459959
USER    NEWDPF axisangle0	0.298254 0.468586 0.831548 -141.364235
USER    NEWDPF quaternion0	0.281462 0.442204 0.784730 -0.330809
USER    NEWDPF dihe0	-117.76 -25.96 128.32 32.70 27.89 179.46 -145.70 3.38 -70.55 88.51 154.67 -73.35 -114.61 89.95 -53.60 18.36 32.92 29.87 40.12 -14.75 -180.00 -39.53 52.86 -150.71 
USER  
USER                              x       y       z    vdW   Elec        q     RMS 
ATOM      1  C   UNL d   1     -16.522   3.354   0.222 -0.01 +0.02    +0.194    12.649
ATOM      2  C   UNL d   1     -15.799   2.522  -0.839 -0.02 +0.02    +0.194    12.649
ATOM      3  C   UNL d   1     -14.975   1.396  -0.210 -0.11 +0.03    +0.194    12.649
ATOM      4  C   UNL d   1     -15.780   0.528   0.755 -0.14 +0.04    +0.194    12.649
ATOM      5  C   UNL d   1     -16.609   1.320   1.758 -0.07 +0.04    +0.194    12.649
ATOM      6  C   UNL d   1     -17.384   2.485   1.139 -0.02 +0.02    +0.194    12.649
ATOM      7  O   UNL d   1     -17.397   4.265  -0.448 +0.00 -0.02    -0.278    12.649
ATOM      8  P   UNL d   1     -16.785   5.629  -1.013 +0.01 +0.03    +0.473    12.649
ATOM      9  O   UNL d   1     -16.228   6.546   0.019 -0.00 -0.01    -0.228    12.649
ATOM     10  O   UNL d   1     -15.700   5.152  -2.081 +0.00 -0.02    -0.303    12.649
ATOM     11  H   UNL d   1     -16.137   4.984  -2.937 +0.00 +0.01    +0.222    12.649
ATOM     12  O   UNL d   1     -17.921   6.238  -1.941 +0.00 -0.01    -0.303    12.649
ATOM     13  H   UNL d   1     -18.047   5.734  -2.777 +0.00 +0.01    +0.222    12.649
ATOM     14  O   UNL d   1     -16.769   1.941  -1.719 -0.01 -0.03    -0.278    12.649
ATOM     15  P   UNL d   1     -16.707   2.397  -3.253 +0.00 +0.03    +0.473    12.649
ATOM     16  O   UNL d   1     -17.059   1.362  -4.276 -0.01 -0.01    -0.228    12.649
ATOM     17  O   UNL d   1     -17.656   3.675  -3.316 -0.00 -0.01    -0.303    12.649
ATOM     18  H   UNL d   1     -17.628   4.175  -2.478 +0.00 +0.01    +0.222    12.649
ATOM     19  O   UNL d   1     -15.269   3.058  -3.412 -0.01 -0.02    -0.303    12.649
ATOM     20  H   UNL d   1     -14.945   3.423  -2.569 +0.02 +0.01    +0.222    12.649
ATOM     21  O   UNL d   1     -17.814   3.313   2.216 -0.01 -0.04    -0.278    12.649
ATOM     22  P   UNL d   1     -16.778   4.304   2.917 +0.02 +0.08    +0.473    12.649
ATOM     23  O   UNL d   1     -15.324   3.987   2.819 -0.04 -0.05    -0.228    12.649
ATOM     24  O   UNL d   1     -17.199   5.707   2.295 +0.00 -0.04    -0.303    12.649
ATOM     25  H   UNL d   1     -17.437   5.564   1.344 +0.01 +0.02    +0.222    12.649
ATOM     26  O   UNL d   1     -17.377   4.406   4.400 -0.01 -0.07    -0.303    12.649
ATOM     27  H   UNL d   1     -18.131   3.787   4.486 +0.04 +0.04    +0.222    12.649
ATOM     28  O   UNL d   1     -14.574   0.522  -1.258 -0.14 -0.04    -0.278    12.649
ATOM     29  P   UNL d   1     -13.475   0.984  -2.314 -0.14 +0.03    +0.473    12.649
ATOM     30  O   UNL d   1     -13.058   2.407  -2.224 -0.10 -0.02    -0.228    12.649
ATOM     31  O   UNL d   1     -12.349  -0.121  -2.046 -0.18 +0.00    -0.303    12.649
ATOM     32  H   UNL d   1     -11.703   0.240  -1.396 -0.14 -0.04    +0.222    12.649
ATOM     33  O   UNL d   1     -14.115   0.508  -3.692 -0.06 -0.02    -0.303    12.649
ATOM     34  H   UNL d   1     -14.967   0.988  -3.833 +0.04 +0.02    +0.222    12.649
ATOM     35  O   UNL d   1     -17.571   0.404   2.275 -0.09 -0.06    -0.278    12.649
ATOM     36  P   UNL d   1     -18.681   0.900   3.307 -0.06 +0.08    +0.473    12.649
ATOM     37  O   UNL d   1     -19.825   1.655   2.709 -0.03 -0.03    -0.228    12.649
ATOM     38  O   UNL d   1     -19.098  -0.463   4.018 -0.05 -0.07    -0.303    12.649
ATOM     39  H   UNL d   1     -20.068  -0.467   4.162 +0.04 +0.03    +0.222    12.649
ATOM     40  O   UNL d   1     -17.813   1.655   4.405 -0.09 -0.06    -0.303    12.649
ATOM     41  H   UNL d   1     -17.157   2.262   3.996 +0.06 +0.05    +0.222    12.649
ATOM     42  O   UNL d   1     -14.836  -0.244   1.505 -0.22 -0.08    -0.278    12.649
ATOM     43  P   UNL d   1     -14.414   0.255   2.960 -0.30 +0.13    +0.473    12.649
ATOM     44  O   UNL d   1     -15.392   0.052   4.065 -0.97 -0.11    -0.228    12.649
ATOM     45  O   UNL d   1     -13.016  -0.470   3.186 -0.36 -0.06    -0.303    12.649
ATOM     46  H   UNL d   1     -12.287   0.016   2.752 -0.31 -0.02    +0.222    12.649
ATOM     47  O   UNL d   1     -13.959   1.771   2.709 -0.15 -0.06    -0.303    12.649
ATOM     48  H   UNL d   1     -14.650   2.376   3.049 +0.10 +0.05    +0.222    12.649
TER
ENDMDL
MODEL       24
USER    Run = 24
USER    Cluster Rank = 64
USER    Number of conformations in this cluster = 1
USER  
USER    RMSD from reference structure       = 11.977 A
USER  
USER    Estimated Free Energy of Binding    =   +3.51 kcal/mol  [=(1)+(2)+(3)-(4)]
USER    
USER    (1) Final Intermolecular Energy     =   -3.65 kcal/mol
USER        vdW + Hbond + desolv Energy     =   -3.16 kcal/mol
USER        Electrostatic Energy            =   -0.49 kcal/mol
USER    (2) Final Total Internal Energy     =  -13.76 kcal/mol
USER    (3) Torsional Free Energy           =   +7.16 kcal/mol
USER    (4) Unbound System's Energy  [=(2)] =  -13.76 kcal/mol
USER    
USER    
USER  
USER    DPF = D:/Protein_go_brrr/autodock/final/mut_Y35F/IHP/dock.dpf
USER    NEWDPF move	IHP_ideal_opt.pdbqt
USER    NEWDPF about	0.035000 0.082000 -0.065000
USER    NEWDPF tran0	7.936848 -5.726041 11.476505
USER    NEWDPF axisangle0	-0.970802 -0.117552 0.209104 -119.963597
USER    NEWDPF quaternion0	-0.840585 -0.101784 0.181056 -0.500275
USER    NEWDPF dihe0	-179.84 86.31 142.83 144.08 14.38 -139.59 -98.24 -21.89 -71.33 15.18 148.83 144.18 132.80 90.75 -49.05 27.05 13.38 -175.96 39.38 -16.87 -175.17 -41.29 -16.70 12.79 
USER  
USER                              x       y       z    vdW   Elec        q     RMS 
ATOM      1  C   UNL d   1       8.769  -4.223  11.659 -0.03 -0.01    +0.194    11.977
ATOM      2  C   UNL d   1       7.787  -4.575  12.778 -0.02 -0.04    +0.194    11.977
ATOM      3  C   UNL d   1       6.478  -5.142  12.225 -0.08 -0.08    +0.194    11.977
ATOM      4  C   UNL d   1       6.687  -6.302  11.255 -0.07 -0.05    +0.194    11.977
ATOM      5  C   UNL d   1       7.743  -6.037  10.189 -0.09 -0.02    +0.194    11.977
ATOM      6  C   UNL d   1       9.029  -5.413  10.734 -0.05 +0.00    +0.194    11.977
ATOM      7  O   UNL d   1      10.018  -3.868  12.257 -0.01 -0.01    -0.278    11.977
ATOM      8  P   UNL d   1      10.208  -2.373  12.787 +0.00 +0.03    +0.473    11.977
ATOM      9  O   UNL d   1      11.567  -2.053  13.302 -0.01 -0.02    -0.228    11.977
ATOM     10  O   UNL d   1       9.776  -1.466  11.548 -0.06 -0.05    -0.303    11.977
ATOM     11  H   UNL d   1       9.197  -1.978  10.954 +0.06 +0.03    +0.222    11.977
ATOM     12  O   UNL d   1       9.009  -2.140  13.803 -0.00 +0.00    -0.303    11.977
ATOM     13  H   UNL d   1       8.835  -2.918  14.379 +0.01 -0.01    +0.222    11.977
ATOM     14  O   UNL d   1       8.385  -5.558  13.633 +0.00 +0.03    -0.278    11.977
ATOM     15  P   UNL d   1       8.692  -5.105  15.138 +0.01 -0.04    +0.473    11.977
ATOM     16  O   UNL d   1       8.558  -6.155  16.196 +0.00 +0.02    -0.228    11.977
ATOM     17  O   UNL d   1      10.158  -4.486  15.065 +0.00 +0.01    -0.303    11.977
ATOM     18  H   UNL d   1      10.243  -3.870  14.312 +0.00 -0.00    +0.222    11.977
ATOM     19  O   UNL d   1       7.806  -3.801  15.349 +0.00 +0.05    -0.303    11.977
ATOM     20  H   UNL d   1       6.892  -4.024  15.606 +0.01 -0.05    +0.222    11.977
ATOM     21  O   UNL d   1       9.755  -4.919   9.611 -0.10 -0.03    -0.278    11.977
ATOM     22  P   UNL d   1       9.389  -3.493   8.997 -0.20 +0.05    +0.473    11.977
ATOM     23  O   UNL d   1       8.055  -2.908   9.318 -0.31 -0.00    -0.228    11.977
ATOM     24  O   UNL d   1      10.632  -2.611   9.457 -0.14 -0.06    -0.303    11.977
ATOM     25  H   UNL d   1      10.749  -2.729  10.434 +0.06 +0.04    +0.222    11.977
ATOM     26  O   UNL d   1       9.701  -3.718   7.441 -0.15 -0.03    -0.303    11.977
ATOM     27  H   UNL d   1       9.310  -4.568   7.154 +0.08 +0.00    +0.222    11.977
ATOM     28  O   UNL d   1       5.753  -5.690  13.318 -0.05 +0.16    -0.278    11.977
ATOM     29  P   UNL d   1       5.127  -4.735  14.429 -0.04 -0.36    +0.473    11.977
ATOM     30  O   UNL d   1       5.338  -3.280  14.215 -0.08 +0.18    -0.228    11.977
ATOM     31  O   UNL d   1       3.615  -5.258  14.427 +0.05 +0.45    -0.303    11.977
ATOM     32  H   UNL d   1       3.310  -5.334  13.493 -0.50 -0.66    +0.222    11.977
ATOM     33  O   UNL d   1       5.713  -5.357  15.772 -0.01 +0.10    -0.303    11.977
ATOM     34  H   UNL d   1       6.639  -5.662  15.608 +0.01 -0.05    +0.222    11.977
ATOM     35  O   UNL d   1       8.088  -7.316   9.660 -0.05 +0.01    -0.278    11.977
ATOM     36  P   UNL d   1       7.742  -7.681   8.147 -0.13 -0.04    +0.473    11.977
ATOM     37  O   UNL d   1       8.321  -6.766   7.114 -0.35 +0.02    -0.228    11.977
ATOM     38  O   UNL d   1       8.253  -9.186   8.049 -0.10 +0.03    -0.303    11.977
ATOM     39  H   UNL d   1       8.668  -9.327   7.171 +0.07 -0.06    +0.222    11.977
ATOM     40  O   UNL d   1       6.158  -7.816   8.183 -0.18 +0.03    -0.303    11.977
ATOM     41  H   UNL d   1       5.834  -8.066   9.077 +0.09 -0.03    +0.222    11.977
ATOM     42  O   UNL d   1       5.443  -6.503  10.574 -0.14 +0.10    -0.278    11.977
ATOM     43  P   UNL d   1       4.463  -7.653  11.083 -0.09 -0.20    +0.473    11.977
ATOM     44  O   UNL d   1       3.930  -8.601  10.065 -0.13 +0.05    -0.228    11.977
ATOM     45  O   UNL d   1       5.308  -8.346  12.239 -0.01 +0.09    -0.303    11.977
ATOM     46  H   UNL d   1       5.318  -7.802  13.051 +0.03 -0.08    +0.222    11.977
ATOM     47  O   UNL d   1       3.360  -6.849  11.923 -0.10 +0.37    -0.303    11.977
ATOM     48  H   UNL d   1       3.792  -6.110  12.400 -0.37 -0.37    +0.222    11.977
TER
ENDMDL
MODEL       47
USER    Run = 47
USER    Cluster Rank = 65
USER    Number of conformations in this cluster = 1
USER  
USER    RMSD from reference structure       = 14.108 A
USER  
USER    Estimated Free Energy of Binding    =   +3.57 kcal/mol  [=(1)+(2)+(3)-(4)]
USER    
USER    (1) Final Intermolecular Energy     =   -3.59 kcal/mol
USER        vdW + Hbond + desolv Energy     =   -3.34 kcal/mol
USER        Electrostatic Energy            =   -0.25 kcal/mol
USER    (2) Final Total Internal Energy     =  -14.93 kcal/mol
USER    (3) Torsional Free Energy           =   +7.16 kcal/mol
USER    (4) Unbound System's Energy  [=(2)] =  -14.93 kcal/mol
USER    
USER    
USER  
USER    DPF = D:/Protein_go_brrr/autodock/final/mut_Y35F/IHP/dock.dpf
USER    NEWDPF move	IHP_ideal_opt.pdbqt
USER    NEWDPF about	0.035000 0.082000 -0.065000
USER    NEWDPF tran0	15.366270 -0.352567 8.134682
USER    NEWDPF axisangle0	0.576773 -0.775060 0.258099 -147.059245
USER    NEWDPF quaternion0	0.553106 -0.743257 0.247508 -0.283520
USER    NEWDPF dihe0	-157.11 0.15 67.39 63.98 78.25 169.65 -22.18 -106.45 147.57 4.63 130.87 173.93 29.33 -49.69 16.26 -44.35 118.91 106.63 -135.58 -7.45 116.98 138.59 146.55 -54.83 
USER  
USER                              x       y       z    vdW   Elec        q     RMS 
ATOM      1  C   UNL d   1      15.819  -1.982   8.487 -0.03 +0.03    +0.194    14.108
ATOM      2  C   UNL d   1      16.931  -1.093   7.928 -0.03 +0.03    +0.194    14.108
ATOM      3  C   UNL d   1      16.436  -0.228   6.767 -0.08 +0.04    +0.194    14.108
ATOM      4  C   UNL d   1      15.176   0.566   7.104 -0.12 +0.05    +0.194    14.108
ATOM      5  C   UNL d   1      14.082  -0.258   7.770 -0.16 +0.05    +0.194    14.108
ATOM      6  C   UNL d   1      14.588  -1.169   8.890 -0.05 +0.04    +0.194    14.108
ATOM      7  O   UNL d   1      16.311  -2.623   9.666 -0.01 -0.04    -0.278    14.108
ATOM      8  P   UNL d   1      15.862  -2.047  11.087 +0.00 +0.06    +0.473    14.108
ATOM      9  O   UNL d   1      14.517  -2.485  11.549 -0.01 -0.03    -0.228    14.108
ATOM     10  O   UNL d   1      17.038  -2.487  12.072 +0.00 -0.03    -0.303    14.108
ATOM     11  H   UNL d   1      17.900  -2.308  11.652 +0.00 +0.02    +0.222    14.108
ATOM     12  O   UNL d   1      16.084  -0.477  10.985 -0.00 -0.05    -0.303    14.108
ATOM     13  H   UNL d   1      16.946  -0.235  10.578 +0.00 +0.03    +0.222    14.108
ATOM     14  O   UNL d   1      17.408  -0.231   8.968 -0.00 -0.04    -0.278    14.108
ATOM     15  P   UNL d   1      18.977  -0.287   9.282 -0.00 +0.05    +0.473    14.108
ATOM     16  O   UNL d   1      19.814  -1.132   8.374 -0.00 -0.02    -0.228    14.108
ATOM     17  O   UNL d   1      19.426   1.241   9.292 -0.00 -0.03    -0.303    14.108
ATOM     18  H   UNL d   1      18.856   1.779   8.709 +0.00 +0.03    +0.222    14.108
ATOM     19  O   UNL d   1      19.059  -0.653  10.828 +0.00 -0.03    -0.303    14.108
ATOM     20  H   UNL d   1      18.176  -0.822  11.206 +0.00 +0.02    +0.222    14.108
ATOM     21  O   UNL d   1      13.545  -2.100   9.167 -0.05 -0.06    -0.278    14.108
ATOM     22  P   UNL d   1      12.338  -2.268   8.137 -0.19 +0.11    +0.473    14.108
ATOM     23  O   UNL d   1      12.663  -2.394   6.687 -0.35 -0.03    -0.228    14.108
ATOM     24  O   UNL d   1      11.551  -3.505   8.755 -0.16 -0.07    -0.303    14.108
ATOM     25  H   UNL d   1      11.905  -3.672   9.666 +0.06 +0.05    +0.222    14.108
ATOM     26  O   UNL d   1      11.392  -1.038   8.541 -0.04 -0.12    -0.303    14.108
ATOM     27  H   UNL d   1      11.767  -0.588   9.326 +0.06 +0.10    +0.222    14.108
ATOM     28  O   UNL d   1      17.436   0.746   6.500 -0.05 -0.05    -0.278    14.108
ATOM     29  P   UNL d   1      17.170   2.282   6.826 -0.00 +0.11    +0.473    14.108
ATOM     30  O   UNL d   1      16.182   2.961   5.949 -0.08 -0.06    -0.228    14.108
ATOM     31  O   UNL d   1      16.811   2.180   8.382 -0.00 -0.07    -0.303    14.108
ATOM     32  H   UNL d   1      17.289   1.408   8.764 +0.01 +0.04    +0.222    14.108
ATOM     33  O   UNL d   1      18.646   2.880   6.845 -0.01 -0.07    -0.303    14.108
ATOM     34  H   UNL d   1      19.224   2.292   7.390 +0.01 +0.04    +0.222    14.108
ATOM     35  O   UNL d   1      13.194   0.686   8.365 -0.14 -0.13    -0.278    14.108
ATOM     36  P   UNL d   1      13.523   1.307   9.797 -0.07 +0.27    +0.473    14.108
ATOM     37  O   UNL d   1      12.762   2.545  10.152 -0.55 -0.31    -0.228    14.108
ATOM     38  O   UNL d   1      13.247   0.070  10.761 -0.04 -0.11    -0.303    14.108
ATOM     39  H   UNL d   1      14.005  -0.551  10.711 +0.03 +0.05    +0.222    14.108
ATOM     40  O   UNL d   1      15.109   1.420   9.763 -0.01 -0.10    -0.303    14.108
ATOM     41  H   UNL d   1      15.518   0.660   9.292 +0.03 +0.05    +0.222    14.108
ATOM     42  O   UNL d   1      14.645   1.047   5.864 -0.21 -0.07    -0.278    14.108
ATOM     43  P   UNL d   1      13.530   2.187   5.893 -0.24 +0.19    +0.473    14.108
ATOM     44  O   UNL d   1      13.444   3.094   4.715 -0.55 -0.10    -0.228    14.108
ATOM     45  O   UNL d   1      12.198   1.365   6.181 -0.33 -0.14    -0.303    14.108
ATOM     46  H   UNL d   1      12.264   0.856   7.014 +0.09 +0.11    +0.222    14.108
ATOM     47  O   UNL d   1      13.779   2.907   7.303 -0.12 -0.18    -0.303    14.108
ATOM     48  H   UNL d   1      14.449   2.403   7.809 +0.06 +0.10    +0.222    14.108
TER
ENDMDL
MODEL       38
USER    Run = 38
USER    Cluster Rank = 66
USER    Number of conformations in this cluster = 1
USER  
USER    RMSD from reference structure       = 18.947 A
USER  
USER    Estimated Free Energy of Binding    =   +3.59 kcal/mol  [=(1)+(2)+(3)-(4)]
USER    
USER    (1) Final Intermolecular Energy     =   -3.57 kcal/mol
USER        vdW + Hbond + desolv Energy     =   -3.41 kcal/mol
USER        Electrostatic Energy            =   -0.16 kcal/mol
USER    (2) Final Total Internal Energy     =  -14.01 kcal/mol
USER    (3) Torsional Free Energy           =   +7.16 kcal/mol
USER    (4) Unbound System's Energy  [=(2)] =  -14.01 kcal/mol
USER    
USER    
USER  
USER    DPF = D:/Protein_go_brrr/autodock/final/mut_Y35F/IHP/dock.dpf
USER    NEWDPF move	IHP_ideal_opt.pdbqt
USER    NEWDPF about	0.035000 0.082000 -0.065000
USER    NEWDPF tran0	-11.591829 -16.359782 9.328799
USER    NEWDPF axisangle0	0.165837 0.969397 -0.181016 153.968513
USER    NEWDPF quaternion0	0.161577 0.944492 -0.176365 0.225219
USER    NEWDPF dihe0	-176.69 9.72 96.00 -54.69 147.31 128.26 -161.98 -0.22 -30.37 117.06 -7.64 -167.58 46.02 86.86 76.14 8.42 38.60 -91.93 -1.29 -56.03 -34.01 179.43 -176.14 29.72 
USER  
USER                              x       y       z    vdW   Elec        q     RMS 
ATOM      1  C   UNL d   1     -13.234 -16.870   9.489 -0.07 +0.00    +0.194    18.947
ATOM      2  C   UNL d   1     -12.182 -17.966   9.665 -0.04 -0.00    +0.194    18.947
ATOM      3  C   UNL d   1     -11.074 -17.860   8.615 -0.09 -0.01    +0.194    18.947
ATOM      4  C   UNL d   1     -10.451 -16.469   8.536 -0.17 -0.00    +0.194    18.947
ATOM      5  C   UNL d   1     -11.467 -15.336   8.476 -0.22 +0.01    +0.194    18.947
ATOM      6  C   UNL d   1     -12.609 -15.475   9.485 -0.15 +0.01    +0.194    18.947
ATOM      7  O   UNL d   1     -14.131 -16.931  10.601 -0.02 -0.00    -0.278    18.947
ATOM      8  P   UNL d   1     -15.692 -17.109  10.308 -0.02 -0.01    +0.473    18.947
ATOM      9  O   UNL d   1     -16.198 -18.504  10.411 -0.01 +0.01    -0.228    18.947
ATOM     10  O   UNL d   1     -16.394 -16.108  11.334 -0.03 +0.00    -0.303    18.947
ATOM     11  H   UNL d   1     -15.775 -15.390  11.565 +0.03 +0.01    +0.222    18.947
ATOM     12  O   UNL d   1     -15.936 -16.383   8.916 -0.11 +0.02    -0.303    18.947
ATOM     13  H   UNL d   1     -15.378 -15.581   8.796 +0.07 -0.01    +0.222    18.947
ATOM     14  O   UNL d   1     -11.592 -17.843  10.965 -0.00 -0.00    -0.278    18.947
ATOM     15  P   UNL d   1     -12.475 -18.348  12.202 +0.00 +0.00    +0.473    18.947
ATOM     16  O   UNL d   1     -11.745 -19.039  13.311 +0.00 +0.00    -0.228    18.947
ATOM     17  O   UNL d   1     -13.243 -17.040  12.689 -0.00 -0.01    -0.303    18.947
ATOM     18  H   UNL d   1     -13.007 -16.268  12.138 +0.02 +0.01    +0.222    18.947
ATOM     19  O   UNL d   1     -13.654 -19.180  11.534 +0.00 +0.00    -0.303    18.947
ATOM     20  H   UNL d   1     -14.520 -18.755  11.675 +0.01 -0.00    +0.222    18.947
ATOM     21  O   UNL d   1     -13.628 -14.561   9.082 -0.22 -0.02    -0.278    18.947
ATOM     22  P   UNL d   1     -14.362 -13.662  10.177 -0.15 +0.09    +0.473    18.947
ATOM     23  O   UNL d   1     -14.024 -12.211  10.239 -0.16 -0.11    -0.228    18.947
ATOM     24  O   UNL d   1     -15.894 -13.979   9.882 -0.12 -0.03    -0.303    18.947
ATOM     25  H   UNL d   1     -16.122 -14.837  10.321 +0.05 +0.01    +0.222    18.947
ATOM     26  O   UNL d   1     -14.102 -14.503  11.517 -0.03 -0.04    -0.303    18.947
ATOM     27  H   UNL d   1     -14.288 -15.449  11.344 +0.04 +0.01    +0.222    18.947
ATOM     28  O   UNL d   1     -10.018 -18.724   9.017 -0.02 +0.01    -0.278    18.947
ATOM     29  P   UNL d   1      -9.131 -18.370  10.292 +0.01 -0.00    +0.473    18.947
ATOM     30  O   UNL d   1      -9.199 -16.958  10.748 -0.02 -0.00    -0.228    18.947
ATOM     31  O   UNL d   1      -9.649 -19.489  11.312 -0.00 +0.00    -0.303    18.947
ATOM     32  H   UNL d   1     -10.172 -19.049  12.022 +0.00 -0.00    +0.222    18.947
ATOM     33  O   UNL d   1      -7.699 -18.920   9.865 -0.01 +0.00    -0.303    18.947
ATOM     34  H   UNL d   1      -7.415 -18.465   9.034 +0.04 -0.00    +0.222    18.947
ATOM     35  O   UNL d   1     -10.748 -14.152   8.815 -0.29 -0.03    -0.278    18.947
ATOM     36  P   UNL d   1      -9.751 -14.146  10.060 -0.14 +0.06    +0.473    18.947
ATOM     37  O   UNL d   1      -8.381 -14.681   9.791 -0.14 -0.00    -0.228    18.947
ATOM     38  O   UNL d   1      -9.782 -12.614  10.494 -0.11 -0.13    -0.303    18.947
ATOM     39  H   UNL d   1      -8.982 -12.165  10.146 +0.06 +0.06    +0.222    18.947
ATOM     40  O   UNL d   1     -10.605 -14.879  11.183 -0.03 -0.04    -0.303    18.947
ATOM     41  H   UNL d   1     -10.646 -15.850  11.034 +0.04 +0.01    +0.222    18.947
ATOM     42  O   UNL d   1      -9.695 -16.421   7.321 -0.22 +0.02    -0.278    18.947
ATOM     43  P   UNL d   1      -8.230 -17.053   7.299 -0.21 -0.02    +0.473    18.947
ATOM     44  O   UNL d   1      -7.321 -16.719   8.430 -0.13 -0.00    -0.228    18.947
ATOM     45  O   UNL d   1      -8.523 -18.609   7.137 -0.08 +0.02    -0.303    18.947
ATOM     46  H   UNL d   1      -8.758 -19.019   7.993 +0.04 -0.01    +0.222    18.947
ATOM     47  O   UNL d   1      -7.688 -16.670   5.839 -0.31 +0.04    -0.303    18.947
ATOM     48  H   UNL d   1      -8.294 -16.018   5.431 -0.49 -0.09    +0.222    18.947
TER
ENDMDL
MODEL       78
USER    Run = 78
USER    Cluster Rank = 67
USER    Number of conformations in this cluster = 1
USER  
USER    RMSD from reference structure       = 13.547 A
USER  
USER    Estimated Free Energy of Binding    =   +3.59 kcal/mol  [=(1)+(2)+(3)-(4)]
USER    
USER    (1) Final Intermolecular Energy     =   -3.57 kcal/mol
USER        vdW + Hbond + desolv Energy     =   -3.42 kcal/mol
USER        Electrostatic Energy            =   -0.15 kcal/mol
USER    (2) Final Total Internal Energy     =  -13.58 kcal/mol
USER    (3) Torsional Free Energy           =   +7.16 kcal/mol
USER    (4) Unbound System's Energy  [=(2)] =  -13.58 kcal/mol
USER    
USER    
USER  
USER    DPF = D:/Protein_go_brrr/autodock/final/mut_Y35F/IHP/dock.dpf
USER    NEWDPF move	IHP_ideal_opt.pdbqt
USER    NEWDPF about	0.035000 0.082000 -0.065000
USER    NEWDPF tran0	12.977671 10.387487 7.255036
USER    NEWDPF axisangle0	0.183943 0.921939 0.340871 95.339826
USER    NEWDPF quaternion0	0.135985 0.681569 0.251999 0.673401
USER    NEWDPF dihe0	-76.71 20.92 49.98 33.08 -47.13 176.23 -96.15 -10.28 -19.14 -12.02 -171.48 144.91 -158.06 -179.88 -179.81 43.13 -75.60 180.00 45.96 -18.11 -180.00 -17.61 -154.88 29.86 
USER  
USER                              x       y       z    vdW   Elec        q     RMS 
ATOM      1  C   UNL d   1      11.770   9.869   8.376 -0.08 +0.05    +0.194    13.547
ATOM      2  C   UNL d   1      11.731   9.194   7.003 -0.08 +0.04    +0.194    13.547
ATOM      3  C   UNL d   1      11.939  10.202   5.871 -0.10 +0.02    +0.194    13.547
ATOM      4  C   UNL d   1      13.184  11.066   6.055 -0.06 +0.02    +0.194    13.547
ATOM      5  C   UNL d   1      13.323  11.666   7.448 -0.05 +0.02    +0.194    13.547
ATOM      6  C   UNL d   1      13.054  10.673   8.580 -0.03 +0.03    +0.194    13.547
ATOM      7  O   UNL d   1      11.742   8.847   9.375 -0.04 -0.10    -0.278    13.547
ATOM      8  P   UNL d   1      10.351   8.127   9.687 -0.08 +0.27    +0.473    13.547
ATOM      9  O   UNL d   1       9.714   8.515  10.974 -0.07 -0.11    -0.228    13.547
ATOM     10  O   UNL d   1       9.449   8.461   8.414 -0.15 -0.13    -0.303    13.547
ATOM     11  H   UNL d   1       9.107   7.632   8.029 +0.08 +0.12    +0.222    13.547
ATOM     12  O   UNL d   1      10.637   6.576   9.494 -0.09 -0.45    -0.303    13.547
ATOM     13  H   UNL d   1      11.396   6.395   8.895 +0.04 +0.31    +0.222    13.547
ATOM     14  O   UNL d   1      12.772   8.212   6.936 -0.03 -0.08    -0.278    13.547
ATOM     15  P   UNL d   1      12.307   6.682   6.839 -0.08 +0.25    +0.473    13.547
ATOM     16  O   UNL d   1      12.839   5.751   7.883 -0.11 -0.19    -0.228    13.547
ATOM     17  O   UNL d   1      10.716   6.760   6.834 -0.18 -0.20    -0.303    13.547
ATOM     18  H   UNL d   1      10.392   7.371   7.524 +0.07 +0.14    +0.222    13.547
ATOM     19  O   UNL d   1      12.612   6.270   5.334 -0.20 -0.10    -0.303    13.547
ATOM     20  H   UNL d   1      12.590   7.041   4.737 +0.10 +0.05    +0.222    13.547
ATOM     21  O   UNL d   1      12.883  11.440   9.770 -0.02 -0.06    -0.278    13.547
ATOM     22  P   UNL d   1      11.503  12.196  10.032 -0.10 +0.12    +0.473    13.547
ATOM     23  O   UNL d   1      11.532  13.462  10.819 -0.12 -0.08    -0.228    13.547
ATOM     24  O   UNL d   1      10.925  12.340   8.556 -0.08 -0.05    -0.303    13.547
ATOM     25  H   UNL d   1      10.915  13.303   8.322 +0.07 +0.03    +0.222    13.547
ATOM     26  O   UNL d   1      10.595  11.017  10.630 -0.12 -0.10    -0.303    13.547
ATOM     27  H   UNL d   1      11.130  10.201  10.698 +0.05 +0.07    +0.222    13.547
ATOM     28  O   UNL d   1      12.165   9.464   4.676 -0.10 -0.02    -0.278    13.547
ATOM     29  P   UNL d   1      10.950   9.104   3.712 -0.22 -0.01    +0.473    13.547
ATOM     30  O   UNL d   1       9.710   9.897   3.918 -0.27 +0.01    -0.228    13.547
ATOM     31  O   UNL d   1      11.672   9.241   2.290 -0.31 +0.06    -0.303    13.547
ATOM     32  H   UNL d   1      12.214  10.063   2.292 -0.37 -0.07    +0.222    13.547
ATOM     33  O   UNL d   1      10.834   7.526   3.896 -0.24 -0.02    -0.303    13.547
ATOM     34  H   UNL d   1      10.830   7.315   4.862 +0.10 +0.04    +0.222    13.547
ATOM     35  O   UNL d   1      14.685  12.073   7.561 -0.01 -0.03    -0.278    13.547
ATOM     36  P   UNL d   1      15.808  11.379   6.666 -0.02 +0.07    +0.473    13.547
ATOM     37  O   UNL d   1      15.563   9.945   6.319 -0.08 -0.05    -0.228    13.547
ATOM     38  O   UNL d   1      15.872  12.355   5.408 -0.05 -0.04    -0.303    13.547
ATOM     39  H   UNL d   1      15.225  12.053   4.735 +0.05 +0.03    +0.222    13.547
ATOM     40  O   UNL d   1      17.138  11.709   7.473 -0.00 -0.04    -0.303    13.547
ATOM     41  H   UNL d   1      17.230  12.673   7.645 +0.01 +0.02    +0.222    13.547
ATOM     42  O   UNL d   1      13.072  12.157   5.135 -0.06 -0.01    -0.278    13.547
ATOM     43  P   UNL d   1      13.482  11.927   3.611 -0.13 -0.01    +0.473    13.547
ATOM     44  O   UNL d   1      14.333  12.964   2.964 -0.19 +0.01    -0.228    13.547
ATOM     45  O   UNL d   1      14.134  10.476   3.641 -0.10 -0.05    -0.303    13.547
ATOM     46  H   UNL d   1      13.612   9.837   3.115 +0.06 +0.00    +0.222    13.547
ATOM     47  O   UNL d   1      12.078  11.638   2.894 -0.01 +0.09    -0.303    13.547
ATOM     48  H   UNL d   1      11.504  11.126   3.501 +0.00 -0.04    +0.222    13.547
TER
ENDMDL
MODEL        2
USER    Run = 2
USER    Cluster Rank = 68
USER    Number of conformations in this cluster = 1
USER  
USER    RMSD from reference structure       = 19.788 A
USER  
USER    Estimated Free Energy of Binding    =   +3.62 kcal/mol  [=(1)+(2)+(3)-(4)]
USER    
USER    (1) Final Intermolecular Energy     =   -3.54 kcal/mol
USER        vdW + Hbond + desolv Energy     =   -3.47 kcal/mol
USER        Electrostatic Energy            =   -0.07 kcal/mol
USER    (2) Final Total Internal Energy     =  -13.45 kcal/mol
USER    (3) Torsional Free Energy           =   +7.16 kcal/mol
USER    (4) Unbound System's Energy  [=(2)] =  -13.45 kcal/mol
USER    
USER    
USER  
USER    DPF = D:/Protein_go_brrr/autodock/final/mut_Y35F/IHP/dock.dpf
USER    NEWDPF move	IHP_ideal_opt.pdbqt
USER    NEWDPF about	0.035000 0.082000 -0.065000
USER    NEWDPF tran0	-12.377755 -17.655179 9.525326
USER    NEWDPF axisangle0	0.930018 -0.366892 0.021373 -141.674972
USER    NEWDPF quaternion0	0.878487 -0.346563 0.020188 -0.328249
USER    NEWDPF dihe0	-122.38 41.33 28.06 57.55 -5.91 179.82 -17.96 -30.37 35.78 180.00 -126.56 179.77 -163.55 177.70 -179.85 -38.19 -146.23 158.15 40.14 -18.26 175.72 142.70 6.05 -179.88 
USER  
USER                              x       y       z    vdW   Elec        q     RMS 
ATOM      1  C   UNL d   1     -11.026 -18.385   8.735 -0.06 -0.01    +0.194    19.788
ATOM      2  C   UNL d   1     -11.402 -16.986   8.244 -0.11 -0.01    +0.194    19.788
ATOM      3  C   UNL d   1     -12.917 -16.827   8.092 -0.13 -0.00    +0.194    19.788
ATOM      4  C   UNL d   1     -13.692 -17.227   9.345 -0.07 -0.00    +0.194    19.788
ATOM      5  C   UNL d   1     -13.269 -18.566   9.936 -0.01 -0.00    +0.194    19.788
ATOM      6  C   UNL d   1     -11.753 -18.749  10.031 -0.01 -0.00    +0.194    19.788
ATOM      7  O   UNL d   1      -9.624 -18.398   9.015 -0.03 +0.01    -0.278    19.788
ATOM      8  P   UNL d   1      -8.610 -18.618   7.801 -0.05 -0.02    +0.473    19.788
ATOM      9  O   UNL d   1      -7.869 -19.908   7.823 -0.02 +0.01    -0.228    19.788
ATOM     10  O   UNL d   1      -9.518 -18.438   6.501 -0.10 +0.06    -0.303    19.788
ATOM     11  H   UNL d   1      -9.649 -17.487   6.323 -0.48 -0.08    +0.222    19.788
ATOM     12  O   UNL d   1      -7.716 -17.305   7.766 -0.14 +0.01    -0.303    19.788
ATOM     13  H   UNL d   1      -7.996 -16.630   8.426 +0.07 -0.00    +0.222    19.788
ATOM     14  O   UNL d   1     -10.934 -16.018   9.190 -0.10 -0.01    -0.278    19.788
ATOM     15  P   UNL d   1      -9.769 -15.037   8.694 -0.21 +0.01    +0.473    19.788
ATOM     16  O   UNL d   1      -8.544 -14.962   9.551 -0.14 -0.00    -0.228    19.788
ATOM     17  O   UNL d   1      -9.456 -15.527   7.211 -0.16 +0.00    -0.303    19.788
ATOM     18  H   UNL d   1      -9.051 -16.416   7.212 +0.07 -0.02    +0.222    19.788
ATOM     19  O   UNL d   1     -10.504 -13.652   8.425 -0.33 -0.03    -0.303    19.788
ATOM     20  H   UNL d   1     -11.464 -13.717   8.581 +0.09 +0.04    +0.222    19.788
ATOM     21  O   UNL d   1     -11.519 -20.136  10.266 -0.00 +0.00    -0.278    19.788
ATOM     22  P   UNL d   1     -11.725 -21.185   9.082 +0.00 -0.01    +0.473    19.788
ATOM     23  O   UNL d   1     -12.152 -22.570   9.434 +0.00 +0.00    -0.228    19.788
ATOM     24  O   UNL d   1     -12.723 -20.402   8.122 -0.01 +0.01    -0.303    19.788
ATOM     25  H   UNL d   1     -13.614 -20.380   8.556 +0.01 -0.01    +0.222    19.788
ATOM     26  O   UNL d   1     -10.336 -21.058   8.290 -0.00 +0.01    -0.303    19.788
ATOM     27  H   UNL d   1      -9.736 -20.466   8.787 +0.01 -0.01    +0.222    19.788
ATOM     28  O   UNL d   1     -13.185 -15.444   7.907 -0.24 +0.01    -0.278    19.788
ATOM     29  P   UNL d   1     -13.838 -14.587   9.081 -0.19 +0.03    +0.473    19.788
ATOM     30  O   UNL d   1     -15.213 -14.987   9.477 -0.17 -0.01    -0.228    19.788
ATOM     31  O   UNL d   1     -12.694 -14.719  10.192 -0.08 -0.04    -0.303    19.788
ATOM     32  H   UNL d   1     -11.820 -14.754   9.739 +0.08 +0.03    +0.222    19.788
ATOM     33  O   UNL d   1     -13.646 -13.097   8.553 -0.33 -0.05    -0.303    19.788
ATOM     34  H   UNL d   1     -13.641 -13.104   7.565 -0.45 -0.01    +0.222    19.788
ATOM     35  O   UNL d   1     -13.777 -18.578  11.268 -0.00 +0.00    -0.278    19.788
ATOM     36  P   UNL d   1     -14.478 -19.888  11.850 +0.00 -0.01    +0.473    19.788
ATOM     37  O   UNL d   1     -15.973 -19.859  11.884 -0.00 +0.01    -0.228    19.788
ATOM     38  O   UNL d   1     -13.866 -21.026  10.918 +0.00 +0.01    -0.303    19.788
ATOM     39  H   UNL d   1     -13.733 -20.664  10.015 +0.00 -0.01    +0.222    19.788
ATOM     40  O   UNL d   1     -13.728 -20.087  13.238 +0.00 +0.00    -0.303    19.788
ATOM     41  H   UNL d   1     -14.350 -20.342  13.955 +0.00 -0.00    +0.222    19.788
ATOM     42  O   UNL d   1     -15.065 -17.352   8.960 -0.05 +0.01    -0.278    19.788
ATOM     43  P   UNL d   1     -15.492 -18.554   8.002 -0.02 -0.04    +0.473    19.788
ATOM     44  O   UNL d   1     -16.729 -18.381   7.192 -0.06 +0.04    -0.228    19.788
ATOM     45  O   UNL d   1     -14.177 -18.795   7.138 -0.07 +0.01    -0.303    19.788
ATOM     46  H   UNL d   1     -14.176 -19.683   6.728 +0.03 -0.00    +0.222    19.788
ATOM     47  O   UNL d   1     -15.477 -19.824   8.979 -0.00 +0.02    -0.303    19.788
ATOM     48  H   UNL d   1     -15.198 -19.540   9.874 +0.01 -0.01    +0.222    19.788
TER
ENDMDL
MODEL       50
USER    Run = 50
USER    Cluster Rank = 69
USER    Number of conformations in this cluster = 1
USER  
USER    RMSD from reference structure       = 20.545 A
USER  
USER    Estimated Free Energy of Binding    =   +3.63 kcal/mol  [=(1)+(2)+(3)-(4)]
USER    
USER    (1) Final Intermolecular Energy     =   -3.53 kcal/mol
USER        vdW + Hbond + desolv Energy     =   -3.40 kcal/mol
USER        Electrostatic Energy            =   -0.14 kcal/mol
USER    (2) Final Total Internal Energy     =  -12.34 kcal/mol
USER    (3) Torsional Free Energy           =   +7.16 kcal/mol
USER    (4) Unbound System's Energy  [=(2)] =  -12.34 kcal/mol
USER    
USER    
USER  
USER    DPF = D:/Protein_go_brrr/autodock/final/mut_Y35F/IHP/dock.dpf
USER    NEWDPF move	IHP_ideal_opt.pdbqt
USER    NEWDPF about	0.035000 0.082000 -0.065000
USER    NEWDPF tran0	-14.737645 -17.234750 9.392851
USER    NEWDPF axisangle0	0.035986 -0.980782 0.191759 -77.074759
USER    NEWDPF quaternion0	0.022420 -0.611052 0.119471 -0.782202
USER    NEWDPF dihe0	70.91 125.68 61.32 100.15 -68.04 -179.73 -75.77 -152.90 2.99 23.56 -144.23 179.63 -90.47 -69.99 14.97 -37.93 -117.56 -6.61 -146.56 -7.91 112.34 140.40 143.60 139.13 
USER  
USER                              x       y       z    vdW   Elec        q     RMS 
ATOM      1  C   UNL d   1     -15.018 -18.040  10.895 -0.01 -0.00    +0.194    20.545
ATOM      2  C   UNL d   1     -14.775 -18.952   9.692 -0.01 -0.01    +0.194    20.545
ATOM      3  C   UNL d   1     -15.529 -18.467   8.452 -0.04 -0.01    +0.194    20.545
ATOM      4  C   UNL d   1     -15.267 -16.999   8.125 -0.16 -0.02    +0.194    20.545
ATOM      5  C   UNL d   1     -15.386 -16.066   9.323 -0.13 -0.00    +0.194    20.545
ATOM      6  C   UNL d   1     -14.684 -16.581  10.581 -0.04 +0.00    +0.194    20.545
ATOM      7  O   UNL d   1     -14.152 -18.457  11.953 -0.00 +0.00    -0.278    20.545
ATOM      8  P   UNL d   1     -12.707 -17.784  12.062 +0.01 +0.00    +0.473    20.545
ATOM      9  O   UNL d   1     -12.028 -17.534  10.761 -0.01 -0.00    -0.228    20.545
ATOM     10  O   UNL d   1     -12.963 -16.453  12.903 -0.00 -0.01    -0.303    20.545
ATOM     11  H   UNL d   1     -13.219 -15.730  12.300 +0.02 +0.02    +0.222    20.545
ATOM     12  O   UNL d   1     -11.909 -18.684  13.099 +0.00 +0.00    -0.303    20.545
ATOM     13  H   UNL d   1     -11.545 -19.505  12.698 +0.00 -0.00    +0.222    20.545
ATOM     14  O   UNL d   1     -13.373 -18.971   9.395 -0.01 +0.01    -0.278    20.545
ATOM     15  P   UNL d   1     -12.665 -20.408   9.376 +0.00 -0.01    +0.473    20.545
ATOM     16  O   UNL d   1     -13.428 -21.541   9.986 +0.00 +0.01    -0.228    20.545
ATOM     17  O   UNL d   1     -12.322 -20.650   7.839 -0.01 +0.01    -0.303    20.545
ATOM     18  H   UNL d   1     -13.007 -20.263   7.261 +0.02 -0.00    +0.222    20.545
ATOM     19  O   UNL d   1     -11.220 -20.146   9.988 -0.00 +0.01    -0.303    20.545
ATOM     20  H   UNL d   1     -11.255 -19.528  10.742 +0.01 -0.00    +0.222    20.545
ATOM     21  O   UNL d   1     -15.164 -15.798  11.672 -0.02 -0.01    -0.278    20.545
ATOM     22  P   UNL d   1     -16.402 -14.815  11.455 -0.04 +0.01    +0.473    20.545
ATOM     23  O   UNL d   1     -17.585 -15.326  10.705 -0.09 +0.01    -0.228    20.545
ATOM     24  O   UNL d   1     -16.707 -14.344  12.945 -0.01 -0.01    -0.303    20.545
ATOM     25  H   UNL d   1     -17.686 -14.399  13.091 +0.01 +0.00    +0.222    20.545
ATOM     26  O   UNL d   1     -15.685 -13.520  10.840 -0.10 -0.04    -0.303    20.545
ATOM     27  H   UNL d   1     -14.740 -13.721  10.678 +0.06 +0.04    +0.222    20.545
ATOM     28  O   UNL d   1     -15.033 -19.196   7.336 -0.03 +0.02    -0.278    20.545
ATOM     29  P   UNL d   1     -14.127 -18.475   6.243 -0.03 +0.02    +0.473    20.545
ATOM     30  O   UNL d   1     -14.790 -17.390   5.475 -0.26 +0.01    -0.228    20.545
ATOM     31  O   UNL d   1     -12.873 -18.062   7.147 -0.05 -0.01    -0.303    20.545
ATOM     32  H   UNL d   1     -13.169 -18.001   8.085 +0.05 -0.00    +0.222    20.545
ATOM     33  O   UNL d   1     -13.566 -19.709   5.407 -0.38 -0.03    -0.303    20.545
ATOM     34  H   UNL d   1     -12.687 -19.973   5.775 +0.03 +0.02    +0.222    20.545
ATOM     35  O   UNL d   1     -14.730 -14.859   8.941 -0.20 -0.01    -0.278    20.545
ATOM     36  P   UNL d   1     -13.153 -14.705   9.131 -0.20 +0.04    +0.473    20.545
ATOM     37  O   UNL d   1     -12.689 -14.524  10.541 -0.09 -0.04    -0.228    20.545
ATOM     38  O   UNL d   1     -12.609 -16.026   8.427 -0.16 -0.00    -0.303    20.545
ATOM     39  H   UNL d   1     -12.887 -16.807   8.952 +0.06 -0.00    +0.222    20.545
ATOM     40  O   UNL d   1     -12.798 -13.547   8.100 -0.34 -0.03    -0.303    20.545
ATOM     41  H   UNL d   1     -13.509 -13.423   7.432 -0.45 -0.04    +0.222    20.545
ATOM     42  O   UNL d   1     -16.266 -16.600   7.180 -0.20 +0.06    -0.278    20.545
ATOM     43  P   UNL d   1     -17.679 -17.340   7.193 -0.12 -0.17    +0.473    20.545
ATOM     44  O   UNL d   1     -18.262 -17.685   8.520 -0.06 +0.05    -0.228    20.545
ATOM     45  O   UNL d   1     -18.588 -16.372   6.316 -0.01 +0.37    -0.303    20.545
ATOM     46  H   UNL d   1     -19.215 -16.876   5.760 -0.40 -0.40    +0.222    20.545
ATOM     47  O   UNL d   1     -17.456 -18.573   6.194 -0.07 +0.10    -0.303    20.545
ATOM     48  H   UNL d   1     -16.547 -18.535   5.832 +0.06 -0.05    +0.222    20.545
TER
ENDMDL
MODEL       23
USER    Run = 23
USER    Cluster Rank = 70
USER    Number of conformations in this cluster = 1
USER  
USER    RMSD from reference structure       = 18.647 A
USER  
USER    Estimated Free Energy of Binding    =   +3.72 kcal/mol  [=(1)+(2)+(3)-(4)]
USER    
USER    (1) Final Intermolecular Energy     =   -3.44 kcal/mol
USER        vdW + Hbond + desolv Energy     =   -3.33 kcal/mol
USER        Electrostatic Energy            =   -0.12 kcal/mol
USER    (2) Final Total Internal Energy     =  -12.96 kcal/mol
USER    (3) Torsional Free Energy           =   +7.16 kcal/mol
USER    (4) Unbound System's Energy  [=(2)] =  -12.96 kcal/mol
USER    
USER    
USER  
USER    DPF = D:/Protein_go_brrr/autodock/final/mut_Y35F/IHP/dock.dpf
USER    NEWDPF move	IHP_ideal_opt.pdbqt
USER    NEWDPF about	0.035000 0.082000 -0.065000
USER    NEWDPF tran0	-12.100548 -6.251410 16.928715
USER    NEWDPF axisangle0	-0.353986 0.158377 -0.921743 112.024248
USER    NEWDPF quaternion0	-0.293510 0.131319 -0.764269 0.559017
USER    NEWDPF dihe0	-147.79 171.22 137.20 0.14 84.69 -124.86 19.27 -96.77 33.21 78.26 35.03 -159.97 60.64 48.32 112.34 -90.16 -47.87 -36.25 74.67 15.00 1.27 29.85 -20.51 -15.04 
USER  
USER                              x       y       z    vdW   Elec        q     RMS 
ATOM      1  C   UNL d   1     -11.289  -5.393  18.189 -0.04 -0.03    +0.194    18.647
ATOM      2  C   UNL d   1     -10.398  -5.895  17.051 -0.09 -0.04    +0.194    18.647
ATOM      3  C   UNL d   1     -10.760  -7.322  16.635 -0.06 -0.04    +0.194    18.647
ATOM      4  C   UNL d   1     -12.244  -7.501  16.328 -0.04 -0.08    +0.194    18.647
ATOM      5  C   UNL d   1     -13.172  -6.912  17.383 -0.04 -0.05    +0.194    18.647
ATOM      6  C   UNL d   1     -12.774  -5.509  17.844 -0.05 -0.04    +0.194    18.647
ATOM      7  O   UNL d   1     -11.006  -4.008  18.399 -0.04 +0.02    -0.278    18.647
ATOM      8  P   UNL d   1      -9.479  -3.552  18.508 -0.03 +0.00    +0.473    18.647
ATOM      9  O   UNL d   1      -8.991  -2.708  17.384 -0.21 -0.03    -0.228    18.647
ATOM     10  O   UNL d   1      -9.393  -2.823  19.924 -0.02 -0.01    -0.303    18.647
ATOM     11  H   UNL d   1      -9.725  -3.420  20.620 +0.02 -0.00    +0.222    18.647
ATOM     12  O   UNL d   1      -8.666  -4.891  18.774 -0.03 +0.01    -0.303    18.647
ATOM     13  H   UNL d   1      -7.936  -5.033  18.130 +0.06 -0.01    +0.222    18.647
ATOM     14  O   UNL d   1     -10.561  -5.034  15.917 -0.19 +0.10    -0.278    18.647
ATOM     15  P   UNL d   1      -9.270  -4.811  14.996 -0.20 -0.04    +0.473    18.647
ATOM     16  O   UNL d   1      -9.238  -5.546  13.693 -0.93 +0.01    -0.228    18.647
ATOM     17  O   UNL d   1      -9.191  -3.230  14.815 -0.47 -0.05    -0.303    18.647
ATOM     18  H   UNL d   1      -9.389  -2.770  15.654 +0.10 +0.04    +0.222    18.647
ATOM     19  O   UNL d   1      -8.039  -5.082  15.967 -0.24 +0.02    -0.303    18.647
ATOM     20  H   UNL d   1      -8.040  -4.474  16.729 +0.09 -0.00    +0.222    18.647
ATOM     21  O   UNL d   1     -13.503  -5.245  19.041 -0.01 +0.03    -0.278    18.647
ATOM     22  P   UNL d   1     -14.809  -4.330  18.987 +0.00 -0.04    +0.473    18.647
ATOM     23  O   UNL d   1     -15.961  -4.695  19.861 -0.00 +0.01    -0.228    18.647
ATOM     24  O   UNL d   1     -14.203  -2.883  19.252 -0.00 +0.02    -0.303    18.647
ATOM     25  H   UNL d   1     -13.229  -2.918  19.069 +0.03 -0.01    +0.222    18.647
ATOM     26  O   UNL d   1     -15.108  -4.282  17.413 -0.04 +0.06    -0.303    18.647
ATOM     27  H   UNL d   1     -15.276  -5.190  17.089 +0.03 -0.05    +0.222    18.647
ATOM     28  O   UNL d   1     -10.086  -7.596  15.413 -0.11 +0.04    -0.278    18.647
ATOM     29  P   UNL d   1      -9.439  -9.028  15.155 -0.05 +0.07    +0.473    18.647
ATOM     30  O   UNL d   1      -7.961  -9.046  15.004 -0.11 +0.02    -0.228    18.647
ATOM     31  O   UNL d   1     -10.053  -9.839  16.391 -0.00 -0.02    -0.303    18.647
ATOM     32  H   UNL d   1     -11.016  -9.972  16.231 +0.02 +0.03    +0.222    18.647
ATOM     33  O   UNL d   1     -10.294  -9.564  13.923 -0.47 -0.35    -0.303    18.647
ATOM     34  H   UNL d   1     -11.234  -9.279  14.037 +0.04 +0.29    +0.222    18.647
ATOM     35  O   UNL d   1     -14.449  -6.803  16.759 -0.05 +0.10    -0.278    18.647
ATOM     36  P   UNL d   1     -15.648  -7.754  17.207 +0.01 -0.06    +0.473    18.647
ATOM     37  O   UNL d   1     -15.305  -8.783  18.237 +0.00 +0.01    -0.228    18.647
ATOM     38  O   UNL d   1     -16.744  -6.698  17.677 +0.00 +0.03    -0.303    18.647
ATOM     39  H   UNL d   1     -16.295  -5.946  18.121 +0.01 -0.02    +0.222    18.647
ATOM     40  O   UNL d   1     -16.201  -8.284  15.813 -0.00 +0.04    -0.303    18.647
ATOM     41  H   UNL d   1     -15.476  -8.434  15.167 +0.02 -0.04    +0.222    18.647
ATOM     42  O   UNL d   1     -12.493  -8.910  16.288 -0.03 +0.02    -0.278    18.647
ATOM     43  P   UNL d   1     -13.190  -9.535  14.997 -0.05 +0.11    +0.473    18.647
ATOM     44  O   UNL d   1     -13.352  -8.651  13.809 -0.12 -0.08    -0.228    18.647
ATOM     45  O   UNL d   1     -12.319 -10.838  14.725 -0.06 -0.16    -0.303    18.647
ATOM     46  H   UNL d   1     -11.370 -10.677  14.902 +0.02 +0.11    +0.222    18.647
ATOM     47  O   UNL d   1     -14.544 -10.164  15.580 -0.00 -0.02    -0.303    18.647
ATOM     48  H   UNL d   1     -14.739  -9.759  16.451 +0.01 -0.00    +0.222    18.647
TER
ENDMDL
MODEL       70
USER    Run = 70
USER    Cluster Rank = 71
USER    Number of conformations in this cluster = 1
USER  
USER    RMSD from reference structure       = 17.670 A
USER  
USER    Estimated Free Energy of Binding    =   +3.74 kcal/mol  [=(1)+(2)+(3)-(4)]
USER    
USER    (1) Final Intermolecular Energy     =   -3.42 kcal/mol
USER        vdW + Hbond + desolv Energy     =   -2.95 kcal/mol
USER        Electrostatic Energy            =   -0.47 kcal/mol
USER    (2) Final Total Internal Energy     =  -13.47 kcal/mol
USER    (3) Torsional Free Energy           =   +7.16 kcal/mol
USER    (4) Unbound System's Energy  [=(2)] =  -13.47 kcal/mol
USER    
USER    
USER  
USER    DPF = D:/Protein_go_brrr/autodock/final/mut_Y35F/IHP/dock.dpf
USER    NEWDPF move	IHP_ideal_opt.pdbqt
USER    NEWDPF about	0.035000 0.082000 -0.065000
USER    NEWDPF tran0	3.069514 19.976223 -7.875278
USER    NEWDPF axisangle0	0.743118 0.479330 -0.466924 134.242190
USER    NEWDPF quaternion0	0.684656 0.441620 -0.430190 0.388785
USER    NEWDPF dihe0	-137.37 -7.21 17.11 130.23 159.99 106.15 180.00 -37.23 96.28 10.42 -5.20 -134.20 -138.56 -36.16 -159.82 54.93 -132.14 -74.15 38.26 -35.39 22.11 -37.47 -44.29 26.68 
USER  
USER                              x       y       z    vdW   Elec        q     RMS 
ATOM      1  C   UNL d   1       2.392  21.547  -7.632 +0.00 +0.02    +0.194    17.670
ATOM      2  C   UNL d   1       2.220  20.566  -6.471 -0.03 +0.04    +0.194    17.670
ATOM      3  C   UNL d   1       1.826  19.171  -6.962 -0.05 +0.05    +0.194    17.670
ATOM      4  C   UNL d   1       2.757  18.628  -8.043 -0.06 +0.05    +0.194    17.670
ATOM      5  C   UNL d   1       3.049  19.617  -9.164 -0.01 +0.02    +0.194    17.670
ATOM      6  C   UNL d   1       3.383  21.027  -8.675 -0.00 +0.02    +0.194    17.670
ATOM      7  O   UNL d   1       2.924  22.767  -7.110 +0.00 -0.01    -0.278    17.670
ATOM      8  P   UNL d   1       1.909  23.835  -6.494 +0.01 -0.00    +0.473    17.670
ATOM      9  O   UNL d   1       1.323  24.788  -7.476 +0.00 +0.01    -0.228    17.670
ATOM     10  O   UNL d   1       0.813  22.945  -5.753 +0.00 +0.00    -0.303    17.670
ATOM     11  H   UNL d   1       1.228  22.464  -5.013 +0.01 +0.00    +0.222    17.670
ATOM     12  O   UNL d   1       2.688  24.489  -5.273 +0.00 +0.00    -0.303    17.670
ATOM     13  H   UNL d   1       3.049  23.823  -4.646 +0.00 +0.00    +0.222    17.670
ATOM     14  O   UNL d   1       3.458  20.465  -5.757 -0.35 -0.14    -0.278    17.670
ATOM     15  P   UNL d   1       3.611  21.386  -4.456 -0.02 +0.12    +0.473    17.670
ATOM     16  O   UNL d   1       2.347  21.911  -3.852 -0.00 -0.02    -0.228    17.670
ATOM     17  O   UNL d   1       4.454  20.491  -3.444 -0.07 -0.13    -0.303    17.670
ATOM     18  H   UNL d   1       3.889  19.821  -3.012 +0.03 +0.12    +0.222    17.670
ATOM     19  O   UNL d   1       4.680  22.488  -4.874 -0.00 -0.03    -0.303    17.670
ATOM     20  H   UNL d   1       4.315  23.116  -5.525 +0.01 +0.01    +0.222    17.670
ATOM     21  O   UNL d   1       3.289  21.889  -9.807 +0.00 -0.01    -0.278    17.670
ATOM     22  P   UNL d   1       4.497  21.968 -10.845 +0.00 +0.00    +0.473    17.670
ATOM     23  O   UNL d   1       5.017  23.314 -11.222 +0.00 +0.00    -0.228    17.670
ATOM     24  O   UNL d   1       5.569  21.003 -10.171 +0.00 -0.01    -0.303    17.670
ATOM     25  H   UNL d   1       5.457  20.099 -10.561 +0.01 +0.01    +0.222    17.670
ATOM     26  O   UNL d   1       3.950  21.064 -12.051 +0.00 +0.00    -0.303    17.670
ATOM     27  H   UNL d   1       3.900  20.131 -11.757 +0.00 +0.00    +0.222    17.670
ATOM     28  O   UNL d   1       1.960  18.277  -5.864 -0.46 -0.18    -0.278    17.670
ATOM     29  P   UNL d   1       0.907  18.306  -4.670 +0.03 +0.07    +0.473    17.670
ATOM     30  O   UNL d   1      -0.464  18.747  -5.035 -0.06 +0.07    -0.228    17.670
ATOM     31  O   UNL d   1       1.067  16.811  -4.120 -0.30 -0.01    -0.303    17.670
ATOM     32  H   UNL d   1       0.173  16.400  -4.064 -0.48 -0.47    +0.222    17.670
ATOM     33  O   UNL d   1       1.671  19.168  -3.571 -0.38 -0.12    -0.303    17.670
ATOM     34  H   UNL d   1       2.361  19.717  -4.017 +0.02 +0.12    +0.222    17.670
ATOM     35  O   UNL d   1       4.207  19.117  -9.829 -0.01 -0.03    -0.278    17.670
ATOM     36  P   UNL d   1       4.064  18.040 -10.996 -0.01 +0.03    +0.473    17.670
ATOM     37  O   UNL d   1       4.045  16.610 -10.556 -0.13 -0.03    -0.228    17.670
ATOM     38  O   UNL d   1       2.729  18.519 -11.720 -0.01 -0.00    -0.303    17.670
ATOM     39  H   UNL d   1       2.611  19.482 -11.571 +0.01 +0.00    +0.222    17.670
ATOM     40  O   UNL d   1       5.220  18.470 -12.000 -0.01 -0.01    -0.303    17.670
ATOM     41  H   UNL d   1       5.378  19.440 -11.979 +0.01 +0.00    +0.222    17.670
ATOM     42  O   UNL d   1       2.095  17.504  -8.634 -0.06 -0.04    -0.278    17.670
ATOM     43  P   UNL d   1       2.228  16.077  -7.935 -0.12 +0.07    +0.473    17.670
ATOM     44  O   UNL d   1       3.464  15.809  -7.148 -0.27 -0.13    -0.228    17.670
ATOM     45  O   UNL d   1       0.884  15.976  -7.088 -0.13 +0.03    -0.303    17.670
ATOM     46  H   UNL d   1       0.940  16.500  -6.264 +0.07 -0.02    +0.222    17.670
ATOM     47  O   UNL d   1       1.935  15.053  -9.133 -0.20 +0.00    -0.303    17.670
ATOM     48  H   UNL d   1       2.427  15.341  -9.930 +0.06 +0.01    +0.222    17.670
TER
ENDMDL
MODEL       63
USER    Run = 63
USER    Cluster Rank = 72
USER    Number of conformations in this cluster = 1
USER  
USER    RMSD from reference structure       = 16.345 A
USER  
USER    Estimated Free Energy of Binding    =   +3.79 kcal/mol  [=(1)+(2)+(3)-(4)]
USER    
USER    (1) Final Intermolecular Energy     =   -3.37 kcal/mol
USER        vdW + Hbond + desolv Energy     =   -3.22 kcal/mol
USER        Electrostatic Energy            =   -0.15 kcal/mol
USER    (2) Final Total Internal Energy     =  -13.29 kcal/mol
USER    (3) Torsional Free Energy           =   +7.16 kcal/mol
USER    (4) Unbound System's Energy  [=(2)] =  -13.29 kcal/mol
USER    
USER    
USER  
USER    DPF = D:/Protein_go_brrr/autodock/final/mut_Y35F/IHP/dock.dpf
USER    NEWDPF move	IHP_ideal_opt.pdbqt
USER    NEWDPF about	0.035000 0.082000 -0.065000
USER    NEWDPF tran0	2.963830 -10.455752 -16.140766
USER    NEWDPF axisangle0	-0.576533 0.772016 0.267584 179.554887
USER    NEWDPF quaternion0	-0.576528 0.772010 0.267582 0.003884
USER    NEWDPF dihe0	-179.74 -14.32 123.81 11.39 52.63 -121.75 -101.61 -3.51 107.57 -15.44 31.17 -145.24 15.55 6.56 -34.33 -179.99 178.21 -10.02 -133.92 -20.80 160.14 26.78 1.08 -12.23 
USER  
USER                              x       y       z    vdW   Elec        q     RMS 
ATOM      1  C   UNL d   1       3.084 -11.421 -17.568 -0.03 -0.00    +0.194    16.345
ATOM      2  C   UNL d   1       4.332 -10.613 -17.210 -0.04 -0.00    +0.194    16.345
ATOM      3  C   UNL d   1       3.979  -9.190 -16.771 -0.06 +0.01    +0.194    16.345
ATOM      4  C   UNL d   1       2.926  -9.145 -15.667 -0.01 +0.02    +0.194    16.345
ATOM      5  C   UNL d   1       1.713 -10.028 -15.929 -0.08 +0.02    +0.194    16.345
ATOM      6  C   UNL d   1       2.065 -11.432 -16.428 -0.06 +0.00    +0.194    16.345
ATOM      7  O   UNL d   1       3.480 -12.775 -17.798 -0.01 +0.00    -0.278    16.345
ATOM      8  P   UNL d   1       3.181 -13.857 -16.662 -0.00 -0.01    +0.473    16.345
ATOM      9  O   UNL d   1       1.740 -14.149 -16.431 -0.01 +0.00    -0.228    16.345
ATOM     10  O   UNL d   1       4.016 -15.138 -17.117 -0.00 +0.01    -0.303    16.345
ATOM     11  H   UNL d   1       4.738 -14.862 -17.713 +0.00 -0.01    +0.222    16.345
ATOM     12  O   UNL d   1       4.000 -13.360 -15.394 -0.06 +0.02    -0.303    16.345
ATOM     13  H   UNL d   1       4.967 -13.296 -15.560 +0.02 -0.02    +0.222    16.345
ATOM     14  O   UNL d   1       5.019 -11.265 -16.135 -0.06 +0.01    -0.278    16.345
ATOM     15  P   UNL d   1       6.429 -11.936 -16.489 -0.02 -0.02    +0.473    16.345
ATOM     16  O   UNL d   1       7.509 -11.017 -16.968 -0.01 +0.01    -0.228    16.345
ATOM     17  O   UNL d   1       6.829 -12.721 -15.161 -0.05 +0.02    -0.303    16.345
ATOM     18  H   UNL d   1       6.036 -12.994 -14.662 +0.02 -0.02    +0.222    16.345
ATOM     19  O   UNL d   1       6.063 -13.134 -17.470 -0.00 +0.01    -0.303    16.345
ATOM     20  H   UNL d   1       5.333 -13.677 -17.119 +0.01 -0.01    +0.222    16.345
ATOM     21  O   UNL d   1       0.863 -11.998 -16.946 -0.01 -0.00    -0.278    16.345
ATOM     22  P   UNL d   1       0.080 -11.256 -18.121 +0.01 +0.01    +0.473    16.345
ATOM     23  O   UNL d   1       0.588  -9.930 -18.579 -0.00 -0.00    -0.228    16.345
ATOM     24  O   UNL d   1       0.040 -12.381 -19.246 +0.00 -0.00    -0.303    16.345
ATOM     25  H   UNL d   1       0.677 -13.095 -18.991 +0.00 +0.00    +0.222    16.345
ATOM     26  O   UNL d   1      -1.427 -11.281 -17.574 -0.00 -0.00    -0.303    16.345
ATOM     27  H   UNL d   1      -1.481 -10.748 -16.754 +0.02 +0.00    +0.222    16.345
ATOM     28  O   UNL d   1       5.148  -8.615 -16.201 -0.06 -0.01    -0.278    16.345
ATOM     29  P   UNL d   1       5.552  -7.112 -16.539 -0.01 +0.05    +0.473    16.345
ATOM     30  O   UNL d   1       6.369  -6.421 -15.508 -0.07 -0.05    -0.228    16.345
ATOM     31  O   UNL d   1       6.223  -7.320 -17.978 +0.00 -0.01    -0.303    16.345
ATOM     32  H   UNL d   1       6.880  -8.051 -17.915 +0.01 -0.00    +0.222    16.345
ATOM     33  O   UNL d   1       4.145  -6.461 -16.898 -0.01 -0.04    -0.303    16.345
ATOM     34  H   UNL d   1       3.524  -6.600 -16.141 +0.03 +0.04    +0.222    16.345
ATOM     35  O   UNL d   1       1.065 -10.181 -14.668 -0.75 -0.06    -0.278    16.345
ATOM     36  P   UNL d   1      -0.509  -9.954 -14.540 -0.11 +0.01    +0.473    16.345
ATOM     37  O   UNL d   1      -0.953  -9.185 -13.337 -0.25 +0.00    -0.228    16.345
ATOM     38  O   UNL d   1      -0.852  -9.254 -15.929 -0.02 -0.01    -0.303    16.345
ATOM     39  H   UNL d   1      -0.304  -9.658 -16.636 +0.03 +0.01    +0.222    16.345
ATOM     40  O   UNL d   1      -1.079 -11.430 -14.704 -0.07 +0.01    -0.303    16.345
ATOM     41  H   UNL d   1      -0.795 -11.838 -15.552 +0.04 +0.00    +0.222    16.345
ATOM     42  O   UNL d   1       2.457  -7.795 -15.596 -0.08 -0.04    -0.278    16.345
ATOM     43  P   UNL d   1       2.557  -7.015 -14.208 -0.13 +0.19    +0.473    16.345
ATOM     44  O   UNL d   1       3.742  -7.292 -13.349 -0.67 -0.18    -0.228    16.345
ATOM     45  O   UNL d   1       2.416  -5.493 -14.651 -0.61 -0.17    -0.303    16.345
ATOM     46  H   UNL d   1       2.930  -5.308 -15.462 +0.04 +0.09    +0.222    16.345
ATOM     47  O   UNL d   1       1.131  -7.290 -13.529 -0.19 -0.06    -0.303    16.345
ATOM     48  H   UNL d   1       0.822  -8.185 -13.780 +0.08 +0.03    +0.222    16.345
TER
ENDMDL
MODEL       27
USER    Run = 27
USER    Cluster Rank = 73
USER    Number of conformations in this cluster = 1
USER  
USER    RMSD from reference structure       = 13.754 A
USER  
USER    Estimated Free Energy of Binding    =   +3.83 kcal/mol  [=(1)+(2)+(3)-(4)]
USER    
USER    (1) Final Intermolecular Energy     =   -3.33 kcal/mol
USER        vdW + Hbond + desolv Energy     =   -3.10 kcal/mol
USER        Electrostatic Energy            =   -0.23 kcal/mol
USER    (2) Final Total Internal Energy     =  -14.65 kcal/mol
USER    (3) Torsional Free Energy           =   +7.16 kcal/mol
USER    (4) Unbound System's Energy  [=(2)] =  -14.65 kcal/mol
USER    
USER    
USER  
USER    DPF = D:/Protein_go_brrr/autodock/final/mut_Y35F/IHP/dock.dpf
USER    NEWDPF move	IHP_ideal_opt.pdbqt
USER    NEWDPF about	0.035000 0.082000 -0.065000
USER    NEWDPF tran0	14.872118 2.515322 9.413905
USER    NEWDPF axisangle0	0.578055 0.635555 0.511784 -116.984380
USER    NEWDPF quaternion0	0.492831 0.541854 0.436331 -0.522615
USER    NEWDPF dihe0	71.75 87.23 180.00 -40.77 104.10 180.00 -111.95 -25.74 -4.44 16.52 87.86 131.53 -30.39 170.49 117.33 -145.36 -144.94 -116.65 -172.44 20.89 -35.12 8.50 159.45 -6.19 
USER  
USER                              x       y       z    vdW   Elec        q     RMS 
ATOM      1  C   UNL d   1      15.631   3.604   8.308 -0.02 +0.07    +0.194    13.754
ATOM      2  C   UNL d   1      15.161   2.277   7.711 -0.06 +0.07    +0.194    13.754
ATOM      3  C   UNL d   1      15.495   1.095   8.623 -0.03 +0.05    +0.194    13.754
ATOM      4  C   UNL d   1      15.009   1.287  10.058 -0.02 +0.06    +0.194    13.754
ATOM      5  C   UNL d   1      15.357   2.644  10.655 -0.01 +0.06    +0.194    13.754
ATOM      6  C   UNL d   1      15.080   3.822   9.718 -0.02 +0.08    +0.194    13.754
ATOM      7  O   UNL d   1      15.133   4.664   7.488 -0.02 -0.11    -0.278    13.754
ATOM      8  P   UNL d   1      13.553   4.883   7.407 -0.09 +0.32    +0.473    13.754
ATOM      9  O   UNL d   1      12.778   4.309   8.541 -0.31 -0.36    -0.228    13.754
ATOM     10  O   UNL d   1      13.388   6.464   7.269 -0.04 -0.15    -0.303    13.754
ATOM     11  H   UNL d   1      13.380   6.870   8.156 +0.03 +0.11    +0.222    13.754
ATOM     12  O   UNL d   1      13.140   4.378   5.958 -0.73 -0.20    -0.303    13.754
ATOM     13  H   UNL d   1      13.592   3.545   5.696 +0.10 +0.11    +0.222    13.754
ATOM     14  O   UNL d   1      13.740   2.325   7.527 -0.12 -0.16    -0.278    13.754
ATOM     15  P   UNL d   1      13.139   1.411   6.357 -0.25 +0.19    +0.473    13.754
ATOM     16  O   UNL d   1      12.136   2.054   5.451 -0.41 -0.12    -0.228    13.754
ATOM     17  O   UNL d   1      14.424   0.882   5.579 -0.19 -0.08    -0.303    13.754
ATOM     18  H   UNL d   1      14.795   0.089   6.011 +0.10 +0.05    +0.222    13.754
ATOM     19  O   UNL d   1      12.647   0.092   7.097 -0.25 -0.10    -0.303    13.754
ATOM     20  H   UNL d   1      13.287  -0.638   6.996 +0.07 +0.04    +0.222    13.754
ATOM     21  O   UNL d   1      15.760   4.951  10.263 +0.00 -0.08    -0.278    13.754
ATOM     22  P   UNL d   1      15.037   6.372  10.294 +0.01 +0.16    +0.473    13.754
ATOM     23  O   UNL d   1      15.348   7.297  11.421 +0.00 -0.05    -0.228    13.754
ATOM     24  O   UNL d   1      15.378   6.942   8.848 +0.01 -0.09    -0.303    13.754
ATOM     25  H   UNL d   1      15.338   6.191   8.202 +0.02 +0.07    +0.222    13.754
ATOM     26  O   UNL d   1      13.497   5.957  10.130 -0.03 -0.21    -0.303    13.754
ATOM     27  H   UNL d   1      13.422   4.981  10.155 +0.01 +0.21    +0.222    13.754
ATOM     28  O   UNL d   1      14.787  -0.038   8.134 -0.05 -0.07    -0.278    13.754
ATOM     29  P   UNL d   1      15.579  -1.331   7.646 -0.04 +0.09    +0.473    13.754
ATOM     30  O   UNL d   1      14.757  -2.368   6.971 -0.15 -0.05    -0.228    13.754
ATOM     31  O   UNL d   1      16.733  -0.641   6.778 -0.05 -0.05    -0.303    13.754
ATOM     32  H   UNL d   1      16.313  -0.129   6.048 +0.07 +0.05    +0.222    13.754
ATOM     33  O   UNL d   1      16.349  -1.770   8.968 -0.01 -0.05    -0.303    13.754
ATOM     34  H   UNL d   1      15.789  -1.552   9.753 +0.02 +0.04    +0.222    13.754
ATOM     35  O   UNL d   1      14.504   2.799  11.787 -0.01 -0.11    -0.278    13.754
ATOM     36  P   UNL d   1      12.937   3.023  11.590 -0.04 +0.41    +0.473    13.754
ATOM     37  O   UNL d   1      12.466   4.437  11.720 -0.13 -0.25    -0.228    13.754
ATOM     38  O   UNL d   1      12.695   2.383  10.152 -0.50 -0.40    -0.303    13.754
ATOM     39  H   UNL d   1      13.048   2.990   9.466 +0.02 +0.31    +0.222    13.754
ATOM     40  O   UNL d   1      12.312   1.959  12.593 -0.04 -0.16    -0.303    13.754
ATOM     41  H   UNL d   1      12.927   1.210  12.759 +0.01 +0.08    +0.222    13.754
ATOM     42  O   UNL d   1      15.666   0.295  10.855 -0.00 -0.05    -0.278    13.754
ATOM     43  P   UNL d   1      14.785  -0.809  11.594 +0.00 +0.08    +0.473    13.754
ATOM     44  O   UNL d   1      13.954  -0.366  12.748 -0.01 -0.04    -0.228    13.754
ATOM     45  O   UNL d   1      13.950  -1.447  10.398 -0.01 -0.06    -0.303    13.754
ATOM     46  H   UNL d   1      14.325  -1.202   9.529 +0.04 +0.05    +0.222    13.754
ATOM     47  O   UNL d   1      15.842  -1.972  11.909 +0.00 -0.03    -0.303    13.754
ATOM     48  H   UNL d   1      16.345  -2.180  11.094 +0.00 +0.03    +0.222    13.754
TER
ENDMDL
MODEL       56
USER    Run = 56
USER    Cluster Rank = 74
USER    Number of conformations in this cluster = 1
USER  
USER    RMSD from reference structure       = 20.107 A
USER  
USER    Estimated Free Energy of Binding    =   +3.87 kcal/mol  [=(1)+(2)+(3)-(4)]
USER    
USER    (1) Final Intermolecular Energy     =   -3.29 kcal/mol
USER        vdW + Hbond + desolv Energy     =   -3.34 kcal/mol
USER        Electrostatic Energy            =   +0.05 kcal/mol
USER    (2) Final Total Internal Energy     =  -12.95 kcal/mol
USER    (3) Torsional Free Energy           =   +7.16 kcal/mol
USER    (4) Unbound System's Energy  [=(2)] =  -12.95 kcal/mol
USER    
USER    
USER  
USER    DPF = D:/Protein_go_brrr/autodock/final/mut_Y35F/IHP/dock.dpf
USER    NEWDPF move	IHP_ideal_opt.pdbqt
USER    NEWDPF about	0.035000 0.082000 -0.065000
USER    NEWDPF tran0	-12.100403 -16.374330 -12.038171
USER    NEWDPF axisangle0	0.015313 0.253377 0.967246 -162.621356
USER    NEWDPF quaternion0	0.015138 0.250469 0.956144 -0.151077
USER    NEWDPF dihe0	-150.15 -22.22 33.08 81.31 82.37 104.77 -64.76 -53.77 70.19 -170.04 28.12 -143.77 41.57 -70.96 49.43 51.81 -132.04 139.10 -143.80 -5.28 -177.29 -8.18 -4.67 -7.30 
USER  
USER                              x       y       z    vdW   Elec        q     RMS 
ATOM      1  C   UNL d   1     -12.963 -14.892 -11.835 -0.09 +0.03    +0.194    20.107
ATOM      2  C   UNL d   1     -11.585 -14.770 -12.488 -0.11 +0.03    +0.194    20.107
ATOM      3  C   UNL d   1     -10.544 -15.639 -11.779 -0.21 +0.02    +0.194    20.107
ATOM      4  C   UNL d   1     -10.981 -17.093 -11.621 -0.14 +0.02    +0.194    20.107
ATOM      5  C   UNL d   1     -12.395 -17.260 -11.079 -0.10 +0.02    +0.194    20.107
ATOM      6  C   UNL d   1     -13.426 -16.346 -11.746 -0.09 +0.02    +0.194    20.107
ATOM      7  O   UNL d   1     -13.906 -14.193 -12.651 -0.10 -0.03    -0.278    20.107
ATOM      8  P   UNL d   1     -14.714 -15.020 -13.754 -0.02 +0.03    +0.473    20.107
ATOM      9  O   UNL d   1     -16.036 -15.539 -13.311 -0.02 -0.01    -0.228    20.107
ATOM     10  O   UNL d   1     -14.815 -14.017 -14.991 -0.01 -0.01    -0.303    20.107
ATOM     11  H   UNL d   1     -13.927 -13.681 -15.213 +0.02 +0.01    +0.222    20.107
ATOM     12  O   UNL d   1     -13.686 -16.107 -14.290 -0.01 -0.02    -0.303    20.107
ATOM     13  H   UNL d   1     -12.937 -15.714 -14.792 +0.02 +0.01    +0.222    20.107
ATOM     14  O   UNL d   1     -11.677 -15.191 -13.854 -0.05 -0.02    -0.278    20.107
ATOM     15  P   UNL d   1     -11.142 -14.162 -14.958 -0.02 +0.03    +0.473    20.107
ATOM     16  O   UNL d   1     -10.935 -12.748 -14.514 -0.07 -0.01    -0.228    20.107
ATOM     17  O   UNL d   1      -9.808 -14.839 -15.505 -0.01 -0.03    -0.303    20.107
ATOM     18  H   UNL d   1      -9.141 -14.924 -14.797 +0.05 +0.02    +0.222    20.107
ATOM     19  O   UNL d   1     -12.127 -14.355 -16.192 -0.01 -0.02    -0.303    20.107
ATOM     20  H   UNL d   1     -12.976 -14.749 -15.917 +0.01 +0.01    +0.222    20.107
ATOM     21  O   UNL d   1     -14.589 -16.366 -10.921 -0.05 -0.02    -0.278    20.107
ATOM     22  P   UNL d   1     -14.644 -15.460  -9.609 -0.16 +0.06    +0.473    20.107
ATOM     23  O   UNL d   1     -14.956 -14.010  -9.766 -0.24 -0.04    -0.228    20.107
ATOM     24  O   UNL d   1     -15.669 -16.268  -8.699 -0.07 -0.02    -0.303    20.107
ATOM     25  H   UNL d   1     -15.757 -17.183  -9.071 +0.03 +0.01    +0.222    20.107
ATOM     26  O   UNL d   1     -13.241 -15.806  -8.915 -0.20 -0.07    -0.303    20.107
ATOM     27  H   UNL d   1     -13.262 -16.729  -8.589 +0.06 +0.04    +0.222    20.107
ATOM     28  O   UNL d   1      -9.387 -15.681 -12.605 -0.14 -0.02    -0.278    20.107
ATOM     29  P   UNL d   1      -8.114 -14.792 -12.252 -0.26 +0.00    +0.473    20.107
ATOM     30  O   UNL d   1      -7.959 -14.436 -10.819 -0.50 +0.04    -0.228    20.107
ATOM     31  O   UNL d   1      -6.959 -15.686 -12.908 -0.18 -0.05    -0.303    20.107
ATOM     32  H   UNL d   1      -7.332 -16.571 -13.124 +0.06 +0.06    +0.222    20.107
ATOM     33  O   UNL d   1      -8.253 -13.586 -13.283 -0.09 -0.00    -0.303    20.107
ATOM     34  H   UNL d   1      -9.106 -13.679 -13.773 +0.07 +0.01    +0.222    20.107
ATOM     35  O   UNL d   1     -12.769 -18.603 -11.380 -0.02 -0.02    -0.278    20.107
ATOM     36  P   UNL d   1     -13.284 -19.573 -10.223 -0.01 +0.02    +0.473    20.107
ATOM     37  O   UNL d   1     -12.220 -20.328  -9.492 -0.02 -0.01    -0.228    20.107
ATOM     38  O   UNL d   1     -14.123 -18.574  -9.310 -0.02 -0.02    -0.303    20.107
ATOM     39  H   UNL d   1     -14.090 -17.675  -9.702 +0.04 +0.02    +0.222    20.107
ATOM     40  O   UNL d   1     -14.395 -20.433 -10.970 -0.00 -0.01    -0.303    20.107
ATOM     41  H   UNL d   1     -14.455 -21.344 -10.607 +0.00 +0.01    +0.222    20.107
ATOM     42  O   UNL d   1     -10.094 -17.692 -10.671 -0.16 -0.01    -0.278    20.107
ATOM     43  P   UNL d   1      -9.184 -18.918 -11.132 -0.13 +0.04    +0.473    20.107
ATOM     44  O   UNL d   1      -8.354 -19.588 -10.092 -0.20 -0.00    -0.228    20.107
ATOM     45  O   UNL d   1     -10.231 -19.880 -11.848 -0.04 -0.04    -0.303    20.107
ATOM     46  H   UNL d   1     -11.051 -19.970 -11.322 +0.03 +0.02    +0.222    20.107
ATOM     47  O   UNL d   1      -8.377 -18.326 -12.384 -0.18 -0.08    -0.303    20.107
ATOM     48  H   UNL d   1      -8.181 -17.379 -12.223 +0.01 +0.04    +0.222    20.107
TER
ENDMDL
MODEL       58
USER    Run = 58
USER    Cluster Rank = 75
USER    Number of conformations in this cluster = 1
USER  
USER    RMSD from reference structure       = 22.585 A
USER  
USER    Estimated Free Energy of Binding    =   +3.88 kcal/mol  [=(1)+(2)+(3)-(4)]
USER    
USER    (1) Final Intermolecular Energy     =   -3.28 kcal/mol
USER        vdW + Hbond + desolv Energy     =   -2.82 kcal/mol
USER        Electrostatic Energy            =   -0.45 kcal/mol
USER    (2) Final Total Internal Energy     =  -13.93 kcal/mol
USER    (3) Torsional Free Energy           =   +7.16 kcal/mol
USER    (4) Unbound System's Energy  [=(2)] =  -13.93 kcal/mol
USER    
USER    
USER  
USER    DPF = D:/Protein_go_brrr/autodock/final/mut_Y35F/IHP/dock.dpf
USER    NEWDPF move	IHP_ideal_opt.pdbqt
USER    NEWDPF about	0.035000 0.082000 -0.065000
USER    NEWDPF tran0	-1.915484 10.490562 21.615805
USER    NEWDPF axisangle0	-0.251713 -0.757559 0.602283 -146.506902
USER    NEWDPF quaternion0	-0.241037 -0.725430 0.576739 -0.288139
USER    NEWDPF dihe0	110.49 129.01 144.91 33.20 119.23 81.57 -36.28 -156.18 142.21 -2.10 -24.17 129.65 -73.95 179.75 -174.59 -37.59 168.89 -88.48 -151.35 -3.63 10.54 135.69 -180.00 -105.26 
USER  
USER                              x       y       z    vdW   Elec        q     RMS 
ATOM      1  C   UNL d   1      -3.381  10.599  22.524 +0.01 -0.01    +0.194    22.585
ATOM      2  C   UNL d   1      -2.242   9.830  23.196 +0.01 -0.01    +0.194    22.585
ATOM      3  C   UNL d   1      -1.527   8.902  22.212 +0.00 -0.02    +0.194    22.585
ATOM      4  C   UNL d   1      -1.072   9.611  20.939 -0.02 -0.04    +0.194    22.585
ATOM      5  C   UNL d   1      -2.144  10.483  20.297 -0.04 -0.05    +0.194    22.585
ATOM      6  C   UNL d   1      -2.901  11.366  21.291 -0.00 -0.02    +0.194    22.585
ATOM      7  O   UNL d   1      -3.880  11.561  23.456 +0.00 +0.01    -0.278    22.585
ATOM      8  P   UNL d   1      -3.161  12.985  23.536 +0.01 -0.02    +0.473    22.585
ATOM      9  O   UNL d   1      -1.760  13.014  23.034 +0.00 +0.02    -0.228    22.585
ATOM     10  O   UNL d   1      -4.137  13.957  22.730 +0.00 +0.01    -0.303    22.585
ATOM     11  H   UNL d   1      -4.386  13.541  21.884 +0.01 -0.00    +0.222    22.585
ATOM     12  O   UNL d   1      -3.371  13.471  25.034 +0.00 +0.01    -0.303    22.585
ATOM     13  H   UNL d   1      -2.702  13.105  25.656 +0.00 -0.01    +0.222    22.585
ATOM     14  O   UNL d   1      -1.289  10.765  23.716 +0.00 +0.02    -0.278    22.585
ATOM     15  P   UNL d   1      -0.882  10.592  25.255 +0.00 -0.02    +0.473    22.585
ATOM     16  O   UNL d   1      -1.060  11.789  26.136 +0.00 +0.01    -0.228    22.585
ATOM     17  O   UNL d   1      -1.732   9.336  25.742 +0.00 +0.01    -0.303    22.585
ATOM     18  H   UNL d   1      -1.640   8.588  25.121 +0.00 -0.01    +0.222    22.585
ATOM     19  O   UNL d   1       0.588   9.986  25.211 +0.00 +0.02    -0.303    22.585
ATOM     20  H   UNL d   1       0.747   9.486  24.389 +0.00 -0.01    +0.222    22.585
ATOM     21  O   UNL d   1      -4.063  11.843  20.617 -0.01 +0.01    -0.278    22.585
ATOM     22  P   UNL d   1      -4.012  13.234  19.837 -0.04 +0.06    +0.473    22.585
ATOM     23  O   UNL d   1      -5.232  14.091  19.845 -0.02 -0.05    -0.228    22.585
ATOM     24  O   UNL d   1      -2.716  13.911  20.466 -0.02 +0.03    -0.303    22.585
ATOM     25  H   UNL d   1      -1.962  13.273  20.381 +0.02 -0.06    +0.222    22.585
ATOM     26  O   UNL d   1      -3.481  12.779  18.395 -0.52 -0.16    -0.303    22.585
ATOM     27  H   UNL d   1      -2.505  12.851  18.373 -0.55 -0.16    +0.222    22.585
ATOM     28  O   UNL d   1      -0.334   8.450  22.839 +0.00 +0.03    -0.278    22.585
ATOM     29  P   UNL d   1       1.089   8.883  22.269 +0.01 -0.06    +0.473    22.585
ATOM     30  O   UNL d   1       1.401   8.407  20.897 -0.03 +0.05    -0.228    22.585
ATOM     31  O   UNL d   1       1.006  10.466  22.486 +0.00 +0.04    -0.303    22.585
ATOM     32  H   UNL d   1       0.263  10.660  23.104 +0.00 -0.03    +0.222    22.585
ATOM     33  O   UNL d   1       2.071   8.419  23.433 +0.00 +0.02    -0.303    22.585
ATOM     34  H   UNL d   1       2.269   9.193  24.013 +0.00 -0.01    +0.222    22.585
ATOM     35  O   UNL d   1      -1.452  11.353  19.405 -0.10 +0.21    -0.278    22.585
ATOM     36  P   UNL d   1      -0.174  12.167  19.904 -0.03 -0.35    +0.473    22.585
ATOM     37  O   UNL d   1       0.012  13.518  19.289 -0.11 +0.20    -0.228    22.585
ATOM     38  O   UNL d   1      -0.398  12.191  21.480 -0.01 +0.08    -0.303    22.585
ATOM     39  H   UNL d   1      -0.233  11.293  21.842 +0.01 -0.05    +0.222    22.585
ATOM     40  O   UNL d   1       1.001  11.113  19.700 -0.08 +0.22    -0.303    22.585
ATOM     41  H   UNL d   1       0.743  10.217  20.010 +0.04 -0.11    +0.222    22.585
ATOM     42  O   UNL d   1      -0.737   8.590  19.992 -0.05 +0.07    -0.278    22.585
ATOM     43  P   UNL d   1      -1.066   8.830  18.450 -0.18 -0.21    +0.473    22.585
ATOM     44  O   UNL d   1      -2.386   9.434  18.115 -0.20 +0.08    -0.228    22.585
ATOM     45  O   UNL d   1       0.183   9.683  17.955 -0.25 +0.34    -0.303    22.585
ATOM     46  H   UNL d   1      -0.016  10.640  17.950 -0.38 -0.48    +0.222    22.585
ATOM     47  O   UNL d   1      -0.770   7.402  17.786 -0.13 +0.03    -0.303    22.585
ATOM     48  H   UNL d   1       0.123   7.101  18.053 -0.20 -0.06    +0.222    22.585
TER
ENDMDL
MODEL       48
USER    Run = 48
USER    Cluster Rank = 76
USER    Number of conformations in this cluster = 1
USER  
USER    RMSD from reference structure       = 16.685 A
USER  
USER    Estimated Free Energy of Binding    =   +4.01 kcal/mol  [=(1)+(2)+(3)-(4)]
USER    
USER    (1) Final Intermolecular Energy     =   -3.14 kcal/mol
USER        vdW + Hbond + desolv Energy     =   -3.03 kcal/mol
USER        Electrostatic Energy            =   -0.11 kcal/mol
USER    (2) Final Total Internal Energy     =  -14.31 kcal/mol
USER    (3) Torsional Free Energy           =   +7.16 kcal/mol
USER    (4) Unbound System's Energy  [=(2)] =  -14.31 kcal/mol
USER    
USER    
USER  
USER    DPF = D:/Protein_go_brrr/autodock/final/mut_Y35F/IHP/dock.dpf
USER    NEWDPF move	IHP_ideal_opt.pdbqt
USER    NEWDPF about	0.035000 0.082000 -0.065000
USER    NEWDPF tran0	-1.857974 -17.550521 6.404566
USER    NEWDPF axisangle0	-0.052226 0.417423 -0.907210 169.178022
USER    NEWDPF quaternion0	-0.051993 0.415562 -0.903168 0.094299
USER    NEWDPF dihe0	96.14 95.30 37.94 -0.59 81.29 128.26 13.23 -61.35 139.11 85.22 109.13 -19.30 -48.15 167.41 56.00 -115.90 80.38 41.08 54.80 -3.17 -173.01 33.80 11.99 -167.75 
USER  
USER                              x       y       z    vdW   Elec        q     RMS 
ATOM      1  C   UNL d   1      -2.880 -17.427   7.792 -0.12 -0.01    +0.194    16.685
ATOM      2  C   UNL d   1      -1.495 -16.793   7.933 -0.11 -0.01    +0.194    16.685
ATOM      3  C   UNL d   1      -0.400 -17.687   7.346 -0.10 -0.01    +0.194    16.685
ATOM      4  C   UNL d   1      -0.689 -18.131   5.914 -0.03 -0.01    +0.194    16.685
ATOM      5  C   UNL d   1      -2.100 -18.664   5.702 -0.19 -0.00    +0.194    16.685
ATOM      6  C   UNL d   1      -3.191 -17.802   6.342 -0.23 -0.01    +0.194    16.685
ATOM      7  O   UNL d   1      -3.855 -16.465   8.201 -0.12 +0.01    -0.278    16.685
ATOM      8  P   UNL d   1      -3.907 -16.045   9.742 -0.00 -0.01    +0.473    16.685
ATOM      9  O   UNL d   1      -2.855 -16.658  10.598 -0.02 +0.01    -0.228    16.685
ATOM     10  O   UNL d   1      -3.842 -14.452   9.711 -0.01 +0.00    -0.303    16.685
ATOM     11  H   UNL d   1      -3.003 -14.166   9.305 +0.06 -0.01    +0.222    16.685
ATOM     12  O   UNL d   1      -5.408 -16.309  10.191 -0.05 -0.00    -0.303    16.685
ATOM     13  H   UNL d   1      -5.731 -17.205   9.947 +0.03 -0.00    +0.222    16.685
ATOM     14  O   UNL d   1      -1.482 -15.540   7.238 -0.09 +0.00    -0.278    16.685
ATOM     15  P   UNL d   1      -0.960 -14.270   8.062 -0.10 -0.03    +0.473    16.685
ATOM     16  O   UNL d   1      -1.741 -13.002   7.908 -0.23 +0.02    -0.228    16.685
ATOM     17  O   UNL d   1      -0.906 -14.782   9.570 -0.02 +0.02    -0.303    16.685
ATOM     18  H   UNL d   1      -1.781 -15.099   9.865 +0.04 -0.01    +0.222    16.685
ATOM     19  O   UNL d   1       0.586 -14.172   7.702 -0.13 +0.03    -0.303    16.685
ATOM     20  H   UNL d   1       1.069 -14.976   7.967 +0.05 -0.02    +0.222    16.685
ATOM     21  O   UNL d   1      -4.380 -18.588   6.359 -0.13 +0.00    -0.278    16.685
ATOM     22  P   UNL d   1      -4.636 -19.612   7.555 -0.01 -0.00    +0.473    16.685
ATOM     23  O   UNL d   1      -5.285 -19.099   8.796 -0.02 +0.00    -0.228    16.685
ATOM     24  O   UNL d   1      -5.430 -20.779   6.820 -0.01 -0.00    -0.303    16.685
ATOM     25  H   UNL d   1      -5.317 -20.661   5.842 +0.04 +0.00    +0.222    16.685
ATOM     26  O   UNL d   1      -3.183 -20.266   7.739 -0.01 +0.00    -0.303    16.685
ATOM     27  H   UNL d   1      -2.822 -20.501   6.861 +0.03 -0.00    +0.222    16.685
ATOM     28  O   UNL d   1       0.789 -16.912   7.269 -0.11 +0.03    -0.278    16.685
ATOM     29  P   UNL d   1       2.208 -17.588   7.531 -0.05 -0.07    +0.473    16.685
ATOM     30  O   UNL d   1       3.187 -16.754   8.274 -0.03 +0.03    -0.228    16.685
ATOM     31  O   UNL d   1       1.743 -18.953   8.225 -0.01 +0.02    -0.303    16.685
ATOM     32  H   UNL d   1       1.235 -19.482   7.567 +0.02 -0.02    +0.222    16.685
ATOM     33  O   UNL d   1       2.628 -18.061   6.070 -0.04 +0.09    -0.303    16.685
ATOM     34  H   UNL d   1       1.898 -17.843   5.440 -0.47 -0.14    +0.222    16.685
ATOM     35  O   UNL d   1      -2.317 -18.637   4.293 -0.26 +0.01    -0.278    16.685
ATOM     36  P   UNL d   1      -3.141 -19.803   3.583 -0.14 +0.05    +0.473    16.685
ATOM     37  O   UNL d   1      -4.316 -19.359   2.770 -0.23 -0.04    -0.228    16.685
ATOM     38  O   UNL d   1      -2.007 -20.541   2.744 -0.13 -0.08    -0.303    16.685
ATOM     39  H   UNL d   1      -1.395 -20.996   3.362 +0.05 +0.03    +0.222    16.685
ATOM     40  O   UNL d   1      -3.432 -20.797   4.790 -0.04 -0.02    -0.303    16.685
ATOM     41  H   UNL d   1      -3.712 -20.315   5.600 +0.05 +0.01    +0.222    16.685
ATOM     42  O   UNL d   1       0.214 -19.202   5.622 -0.12 +0.03    -0.278    16.685
ATOM     43  P   UNL d   1      -0.142 -20.671   6.130 -0.02 -0.02    +0.473    16.685
ATOM     44  O   UNL d   1      -1.000 -21.513   5.250 -0.02 -0.00    -0.228    16.685
ATOM     45  O   UNL d   1       1.292 -21.294   6.429 -0.01 +0.01    -0.303    16.685
ATOM     46  H   UNL d   1       1.905 -20.624   6.791 +0.02 -0.01    +0.222    16.685
ATOM     47  O   UNL d   1      -0.704 -20.421   7.610 -0.01 +0.01    -0.303    16.685
ATOM     48  H   UNL d   1      -1.241 -21.192   7.886 +0.01 -0.00    +0.222    16.685
TER
ENDMDL
MODEL       10
USER    Run = 10
USER    Cluster Rank = 77
USER    Number of conformations in this cluster = 1
USER  
USER    RMSD from reference structure       = 17.831 A
USER  
USER    Estimated Free Energy of Binding    =   +4.05 kcal/mol  [=(1)+(2)+(3)-(4)]
USER    
USER    (1) Final Intermolecular Energy     =   -3.11 kcal/mol
USER        vdW + Hbond + desolv Energy     =   -3.00 kcal/mol
USER        Electrostatic Energy            =   -0.11 kcal/mol
USER    (2) Final Total Internal Energy     =  -12.60 kcal/mol
USER    (3) Torsional Free Energy           =   +7.16 kcal/mol
USER    (4) Unbound System's Energy  [=(2)] =  -12.60 kcal/mol
USER    
USER    
USER  
USER    DPF = D:/Protein_go_brrr/autodock/final/mut_Y35F/IHP/dock.dpf
USER    NEWDPF move	IHP_ideal_opt.pdbqt
USER    NEWDPF about	0.035000 0.082000 -0.065000
USER    NEWDPF tran0	5.480670 17.509214 -11.684551
USER    NEWDPF axisangle0	0.111238 -0.647105 0.754242 -92.280759
USER    NEWDPF quaternion0	0.080207 -0.466588 0.543838 -0.692894
USER    NEWDPF dihe0	-101.72 17.40 8.49 144.07 3.63 172.93 -31.31 -114.90 138.95 34.82 -180.00 180.00 -175.47 -81.17 -167.33 77.71 -143.66 160.18 64.20 6.39 -29.23 -14.12 1.19 -180.00 
USER  
USER                              x       y       z    vdW   Elec        q     RMS 
ATOM      1  C   UNL d   1       5.740  17.519  -9.977 -0.09 +0.03    +0.194    17.831
ATOM      2  C   UNL d   1       6.646  16.582 -10.777 -0.11 +0.02    +0.194    17.831
ATOM      3  C   UNL d   1       5.866  15.820 -11.851 -0.14 +0.02    +0.194    17.831
ATOM      4  C   UNL d   1       5.037  16.731 -12.752 -0.06 +0.00    +0.194    17.831
ATOM      5  C   UNL d   1       4.204  17.759 -11.998 -0.03 +0.01    +0.194    17.831
ATOM      6  C   UNL d   1       4.967  18.478 -10.884 -0.03 +0.01    +0.194    17.831
ATOM      7  O   UNL d   1       6.565  18.314  -9.121 -0.05 -0.05    -0.278    17.831
ATOM      8  P   UNL d   1       7.507  17.568  -8.069 -0.13 +0.14    +0.473    17.831
ATOM      9  O   UNL d   1       7.311  17.971  -6.650 -0.68 -0.16    -0.228    17.831
ATOM     10  O   UNL d   1       7.225  16.019  -8.326 -0.23 -0.09    -0.303    17.831
ATOM     11  H   UNL d   1       7.942  15.642  -8.870 +0.09 +0.04    +0.222    17.831
ATOM     12  O   UNL d   1       8.980  17.737  -8.641 -0.04 -0.02    -0.303    17.831
ATOM     13  H   UNL d   1       9.005  17.829  -9.620 +0.04 +0.01    +0.222    17.831
ATOM     14  O   UNL d   1       7.668  17.356 -11.419 -0.03 -0.01    -0.278    17.831
ATOM     15  P   UNL d   1       9.148  16.745 -11.397 -0.01 -0.00    +0.473    17.831
ATOM     16  O   UNL d   1       9.471  15.807 -10.277 -0.10 +0.00    -0.228    17.831
ATOM     17  O   UNL d   1       9.312  16.074 -12.832 -0.02 +0.01    -0.303    17.831
ATOM     18  H   UNL d   1       8.980  15.155 -12.831 +0.05 -0.00    +0.222    17.831
ATOM     19  O   UNL d   1      10.101  18.012 -11.527 -0.00 +0.01    -0.303    17.831
ATOM     20  H   UNL d   1      10.265  18.430 -10.661 +0.01 -0.01    +0.222    17.831
ATOM     21  O   UNL d   1       3.994  19.129 -10.071 -0.01 -0.03    -0.278    17.831
ATOM     22  P   UNL d   1       4.192  20.661  -9.672 +0.01 +0.03    +0.473    17.831
ATOM     23  O   UNL d   1       3.899  21.067  -8.267 -0.01 -0.03    -0.228    17.831
ATOM     24  O   UNL d   1       5.688  20.930 -10.146 +0.00 -0.01    -0.303    17.831
ATOM     25  H   UNL d   1       6.287  20.338  -9.624 +0.02 +0.02    +0.222    17.831
ATOM     26  O   UNL d   1       3.345  21.406 -10.810 +0.00 -0.00    -0.303    17.831
ATOM     27  H   UNL d   1       2.971  20.739 -11.422 +0.00 +0.00    +0.222    17.831
ATOM     28  O   UNL d   1       6.814  15.200 -12.710 -0.10 -0.01    -0.278    17.831
ATOM     29  P   UNL d   1       7.228  13.678 -12.487 -0.21 +0.03    +0.473    17.831
ATOM     30  O   UNL d   1       6.101  12.716 -12.387 -0.47 -0.04    -0.228    17.831
ATOM     31  O   UNL d   1       8.243  13.483 -13.709 -0.12 -0.00    -0.303    17.831
ATOM     32  H   UNL d   1       8.556  14.370 -14.002 +0.04 -0.00    +0.222    17.831
ATOM     33  O   UNL d   1       8.203  13.777 -11.232 -0.21 -0.01    -0.303    17.831
ATOM     34  H   UNL d   1       8.931  14.412 -11.441 +0.08 -0.00    +0.222    17.831
ATOM     35  O   UNL d   1       3.841  18.745 -12.962 -0.00 +0.00    -0.278    17.831
ATOM     36  P   UNL d   1       2.328  19.238 -13.079 +0.00 -0.01    +0.473    17.831
ATOM     37  O   UNL d   1       1.529  18.612 -14.178 -0.00 +0.01    -0.228    17.831
ATOM     38  O   UNL d   1       1.774  18.939 -11.616 -0.00 +0.00    -0.303    17.831
ATOM     39  H   UNL d   1       2.200  19.554 -10.980 +0.01 +0.00    +0.222    17.831
ATOM     40  O   UNL d   1       2.487  20.820 -13.113 +0.00 +0.01    -0.303    17.831
ATOM     41  H   UNL d   1       3.416  21.096 -12.949 +0.00 -0.00    +0.222    17.831
ATOM     42  O   UNL d   1       4.123  15.889 -13.464 -0.05 -0.00    -0.278    17.831
ATOM     43  P   UNL d   1       2.943  15.178 -12.660 -0.12 +0.01    +0.473    17.831
ATOM     44  O   UNL d   1       2.396  13.911 -13.221 -0.15 +0.00    -0.228    17.831
ATOM     45  O   UNL d   1       3.555  15.032 -11.198 -0.19 -0.03    -0.303    17.831
ATOM     46  H   UNL d   1       3.145  15.663 -10.574 +0.06 +0.02    +0.222    17.831
ATOM     47  O   UNL d   1       1.879  16.358 -12.451 -0.04 +0.00    -0.303    17.831
ATOM     48  H   UNL d   1       2.231  17.183 -12.845 +0.03 -0.00    +0.222    17.831
TER
ENDMDL
MODEL       16
USER    Run = 16
USER    Cluster Rank = 78
USER    Number of conformations in this cluster = 1
USER  
USER    RMSD from reference structure       = 16.942 A
USER  
USER    Estimated Free Energy of Binding    =   +4.15 kcal/mol  [=(1)+(2)+(3)-(4)]
USER    
USER    (1) Final Intermolecular Energy     =   -3.01 kcal/mol
USER        vdW + Hbond + desolv Energy     =   -3.03 kcal/mol
USER        Electrostatic Energy            =   +0.02 kcal/mol
USER    (2) Final Total Internal Energy     =  -13.31 kcal/mol
USER    (3) Torsional Free Energy           =   +7.16 kcal/mol
USER    (4) Unbound System's Energy  [=(2)] =  -13.31 kcal/mol
USER    
USER    
USER  
USER    DPF = D:/Protein_go_brrr/autodock/final/mut_Y35F/IHP/dock.dpf
USER    NEWDPF move	IHP_ideal_opt.pdbqt
USER    NEWDPF about	0.035000 0.082000 -0.065000
USER    NEWDPF tran0	-8.525304 -13.195990 12.257834
USER    NEWDPF axisangle0	-0.016004 -0.989325 -0.144843 -101.188489
USER    NEWDPF quaternion0	-0.012366 -0.764422 -0.111916 -0.634808
USER    NEWDPF dihe0	-167.11 -21.22 136.01 -179.94 11.44 155.33 -149.66 -39.24 22.32 106.84 144.88 120.67 -125.92 -144.60 -177.25 -129.97 -19.78 111.61 45.06 -11.57 -22.43 -14.78 166.45 -36.73 
USER  
USER                              x       y       z    vdW   Elec        q     RMS 
ATOM      1  C   UNL d   1      -9.677 -14.068  13.206 -0.02 +0.03    +0.194    16.942
ATOM      2  C   UNL d   1      -9.207 -14.767  11.928 -0.03 +0.02    +0.194    16.942
ATOM      3  C   UNL d   1      -9.140 -13.799  10.745 -0.14 +0.03    +0.194    16.942
ATOM      4  C   UNL d   1      -8.332 -12.539  11.044 -0.15 +0.04    +0.194    16.942
ATOM      5  C   UNL d   1      -8.689 -11.872  12.366 -0.09 +0.07    +0.194    16.942
ATOM      6  C   UNL d   1      -8.816 -12.848  13.538 -0.03 +0.04    +0.194    16.942
ATOM      7  O   UNL d   1      -9.547 -14.989  14.291 -0.00 -0.02    -0.278    16.942
ATOM      8  P   UNL d   1     -10.648 -16.135  14.451 +0.00 +0.02    +0.473    16.942
ATOM      9  O   UNL d   1     -11.966 -15.676  14.969 +0.00 -0.01    -0.228    16.942
ATOM     10  O   UNL d   1     -10.738 -16.789  12.998 -0.00 -0.01    -0.303    16.942
ATOM     11  H   UNL d   1      -9.855 -16.788  12.584 +0.01 +0.01    +0.222    16.942
ATOM     12  O   UNL d   1      -9.934 -17.281  15.288 +0.00 -0.00    -0.303    16.942
ATOM     13  H   UNL d   1      -9.196 -17.711  14.801 +0.00 +0.00    +0.222    16.942
ATOM     14  O   UNL d   1      -7.900 -15.311  12.148 -0.02 -0.01    -0.278    16.942
ATOM     15  P   UNL d   1      -7.747 -16.896  11.980 -0.00 +0.00    +0.473    16.942
ATOM     16  O   UNL d   1      -7.989 -17.727  13.202 -0.00 -0.00    -0.228    16.942
ATOM     17  O   UNL d   1      -8.735 -17.257  10.783 -0.01 -0.00    -0.303    16.942
ATOM     18  H   UNL d   1      -8.692 -16.583  10.078 +0.05 +0.00    +0.222    16.942
ATOM     19  O   UNL d   1      -6.326 -17.088  11.291 -0.02 +0.00    -0.303    16.942
ATOM     20  H   UNL d   1      -5.728 -17.627  11.841 +0.01 -0.00    +0.222    16.942
ATOM     21  O   UNL d   1      -9.474 -12.146  14.590 -0.02 -0.06    -0.278    16.942
ATOM     22  P   UNL d   1      -8.790 -12.054  16.028 +0.01 +0.03    +0.473    16.942
ATOM     23  O   UNL d   1      -9.676 -12.026  17.229 +0.00 -0.01    -0.228    16.942
ATOM     24  O   UNL d   1      -7.768 -13.272  15.982 +0.00 -0.01    -0.303    16.942
ATOM     25  H   UNL d   1      -8.275 -14.092  15.754 +0.00 +0.01    +0.222    16.942
ATOM     26  O   UNL d   1      -7.815 -10.795  15.845 -0.01 -0.01    -0.303    16.942
ATOM     27  H   UNL d   1      -7.674 -10.633  14.890 +0.04 +0.01    +0.222    16.942
ATOM     28  O   UNL d   1      -8.442 -14.455   9.694 -0.13 -0.00    -0.278    16.942
ATOM     29  P   UNL d   1      -9.243 -15.211   8.545 -0.18 -0.00    +0.473    16.942
ATOM     30  O   UNL d   1      -8.498 -16.290   7.846 -0.25 +0.00    -0.228    16.942
ATOM     31  O   UNL d   1     -10.554 -15.642   9.355 -0.10 -0.01    -0.303    16.942
ATOM     32  H   UNL d   1     -10.451 -16.578   9.645 +0.06 +0.00    +0.222    16.942
ATOM     33  O   UNL d   1      -9.765 -14.002   7.650 -0.29 +0.02    -0.303    16.942
ATOM     34  H   UNL d   1      -9.215 -13.202   7.838 -0.41 -0.07    +0.222    16.942
ATOM     35  O   UNL d   1      -7.602 -10.998  12.664 -0.09 -0.05    -0.278    16.942
ATOM     36  P   UNL d   1      -6.140 -11.587  12.913 -0.05 +0.01    +0.473    16.942
ATOM     37  O   UNL d   1      -5.864 -12.914  12.279 -0.04 -0.00    -0.228    16.942
ATOM     38  O   UNL d   1      -5.217 -10.403  12.382 -0.15 +0.01    -0.303    16.942
ATOM     39  H   UNL d   1      -5.544 -10.110  11.505 +0.08 -0.01    +0.222    16.942
ATOM     40  O   UNL d   1      -6.003 -11.500  14.495 -0.03 +0.00    -0.303    16.942
ATOM     41  H   UNL d   1      -6.643 -12.093  14.949 +0.02 +0.00    +0.222    16.942
ATOM     42  O   UNL d   1      -8.630 -11.600  10.005 -0.18 -0.07    -0.278    16.942
ATOM     43  P   UNL d   1      -7.497 -10.575   9.544 -0.18 -0.01    +0.473    16.942
ATOM     44  O   UNL d   1      -7.617  -9.987   8.180 -0.41 +0.03    -0.228    16.942
ATOM     45  O   UNL d   1      -7.499  -9.501  10.718 -0.25 -0.01    -0.303    16.942
ATOM     46  H   UNL d   1      -7.113  -9.868  11.539 +0.08 +0.01    +0.222    16.942
ATOM     47  O   UNL d   1      -6.139 -11.375   9.835 -0.18 +0.03    -0.303    16.942
ATOM     48  H   UNL d   1      -6.086 -11.582  10.791 +0.08 -0.01    +0.222    16.942
TER
ENDMDL
MODEL       65
USER    Run = 65
USER    Cluster Rank = 79
USER    Number of conformations in this cluster = 1
USER  
USER    RMSD from reference structure       = 16.084 A
USER  
USER    Estimated Free Energy of Binding    =   +4.19 kcal/mol  [=(1)+(2)+(3)-(4)]
USER    
USER    (1) Final Intermolecular Energy     =   -2.97 kcal/mol
USER        vdW + Hbond + desolv Energy     =   -2.55 kcal/mol
USER        Electrostatic Energy            =   -0.42 kcal/mol
USER    (2) Final Total Internal Energy     =  -14.37 kcal/mol
USER    (3) Torsional Free Energy           =   +7.16 kcal/mol
USER    (4) Unbound System's Energy  [=(2)] =  -14.37 kcal/mol
USER    
USER    
USER  
USER    DPF = D:/Protein_go_brrr/autodock/final/mut_Y35F/IHP/dock.dpf
USER    NEWDPF move	IHP_ideal_opt.pdbqt
USER    NEWDPF about	0.035000 0.082000 -0.065000
USER    NEWDPF tran0	7.682398 7.142593 14.803883
USER    NEWDPF axisangle0	-0.663312 0.212516 -0.717533 140.460217
USER    NEWDPF quaternion0	-0.624216 0.199990 -0.675241 0.338243
USER    NEWDPF dihe0	88.90 22.56 128.62 118.26 -77.40 -161.12 103.44 -14.29 156.11 -5.56 180.00 165.00 180.00 89.82 19.83 33.62 112.18 -139.51 25.94 -23.82 164.44 -43.39 -41.42 167.49 
USER  
USER                              x       y       z    vdW   Elec        q     RMS 
ATOM      1  C   UNL d   1       8.880   7.468  16.006 -0.02 +0.04    +0.194    16.084
ATOM      2  C   UNL d   1       9.176   8.021  14.611 -0.05 +0.06    +0.194    16.084
ATOM      3  C   UNL d   1       8.846   7.004  13.516 -0.08 +0.07    +0.194    16.084
ATOM      4  C   UNL d   1       7.430   6.442  13.625 -0.13 +0.06    +0.194    16.084
ATOM      5  C   UNL d   1       7.051   5.984  15.028 -0.08 +0.03    +0.194    16.084
ATOM      6  C   UNL d   1       7.438   6.974  16.129 -0.05 +0.03    +0.194    16.084
ATOM      7  O   UNL d   1       9.049   8.528  16.951 -0.01 -0.06    -0.278    16.084
ATOM      8  P   UNL d   1      10.444   8.643  17.721 +0.01 +0.08    +0.473    16.084
ATOM      9  O   UNL d   1      10.340   8.736  19.203 +0.00 -0.03    -0.228    16.084
ATOM     10  O   UNL d   1      11.264   7.367  17.227 +0.00 -0.04    -0.303    16.084
ATOM     11  H   UNL d   1      10.856   6.557  17.587 +0.00 +0.03    +0.222    16.084
ATOM     12  O   UNL d   1      11.215   9.832  17.003 +0.00 -0.09    -0.303    16.084
ATOM     13  H   UNL d   1      10.898  10.000  16.087 +0.02 +0.09    +0.222    16.084
ATOM     14  O   UNL d   1       8.385   9.196  14.396 -0.09 -0.11    -0.278    16.084
ATOM     15  P   UNL d   1       9.164  10.595  14.407 -0.11 +0.38    +0.473    16.084
ATOM     16  O   UNL d   1       8.661  11.652  13.474 -0.58 -0.33    -0.228    16.084
ATOM     17  O   UNL d   1       9.123  11.049  15.934 -0.18 -0.27    -0.303    16.084
ATOM     18  H   UNL d   1       9.151  10.277  16.531 +0.02 +0.11    +0.222    16.084
ATOM     19  O   UNL d   1      10.695  10.199  14.233 -0.04 -0.16    -0.303    16.084
ATOM     20  H   UNL d   1      10.846   9.700  13.409 +0.03 +0.09    +0.222    16.084
ATOM     21  O   UNL d   1       7.340   6.273  17.366 -0.03 -0.02    -0.278    16.084
ATOM     22  P   UNL d   1       8.271   5.006  17.635 -0.00 +0.03    +0.473    16.084
ATOM     23  O   UNL d   1       9.735   5.141  17.385 -0.00 -0.02    -0.228    16.084
ATOM     24  O   UNL d   1       7.881   4.626  19.130 -0.00 -0.01    -0.303    16.084
ATOM     25  H   UNL d   1       8.700   4.313  19.592 +0.00 +0.01    +0.222    16.084
ATOM     26  O   UNL d   1       7.518   3.865  16.796 -0.01 -0.02    -0.303    16.084
ATOM     27  H   UNL d   1       6.996   4.283  16.081 +0.03 +0.02    +0.222    16.084
ATOM     28  O   UNL d   1       8.885   7.688  12.270 -0.08 -0.13    -0.278    16.084
ATOM     29  P   UNL d   1      10.264   8.248  11.703 -0.06 +0.23    +0.473    16.084
ATOM     30  O   UNL d   1      11.477   7.852  12.463 -0.02 -0.10    -0.228    16.084
ATOM     31  O   UNL d   1      10.163   7.752  10.185 -0.10 -0.21    -0.303    16.084
ATOM     32  H   UNL d   1      10.720   8.341   9.625 +0.05 +0.11    +0.222    16.084
ATOM     33  O   UNL d   1       9.967   9.808  11.584 -0.08 -0.12    -0.303    16.084
ATOM     34  H   UNL d   1       9.510  10.112  12.407 +0.05 +0.11    +0.222    16.084
ATOM     35  O   UNL d   1       5.628   5.887  15.032 -0.06 -0.04    -0.278    16.084
ATOM     36  P   UNL d   1       4.914   4.524  14.610 -0.12 +0.04    +0.473    16.084
ATOM     37  O   UNL d   1       3.531   4.328  15.145 -0.20 -0.01    -0.228    16.084
ATOM     38  O   UNL d   1       4.997   4.591  13.021 -0.12 -0.05    -0.303    16.084
ATOM     39  H   UNL d   1       5.860   4.225  12.729 +0.07 +0.05    +0.222    16.084
ATOM     40  O   UNL d   1       6.002   3.433  15.005 -0.03 -0.02    -0.303    16.084
ATOM     41  H   UNL d   1       6.898   3.681  14.685 +0.04 +0.03    +0.222    16.084
ATOM     42  O   UNL d   1       7.375   5.290  12.777 -0.12 -0.12    -0.278    16.084
ATOM     43  P   UNL d   1       8.420   4.108  13.012 -0.07 +0.29    +0.473    16.084
ATOM     44  O   UNL d   1       9.675   4.131  12.211 -0.33 -0.35    -0.228    16.084
ATOM     45  O   UNL d   1       8.652   4.155  14.586 -0.01 -0.09    -0.303    16.084
ATOM     46  H   UNL d   1       8.216   3.404  15.035 +0.02 +0.04    +0.222    16.084
ATOM     47  O   UNL d   1       7.523   2.789  12.855 -0.07 -0.12    -0.303    16.084
ATOM     48  H   UNL d   1       6.576   3.034  12.918 +0.05 +0.06    +0.222    16.084
TER
ENDMDL
MODEL       88
USER    Run = 88
USER    Cluster Rank = 80
USER    Number of conformations in this cluster = 1
USER  
USER    RMSD from reference structure       = 22.383 A
USER  
USER    Estimated Free Energy of Binding    =   +4.32 kcal/mol  [=(1)+(2)+(3)-(4)]
USER    
USER    (1) Final Intermolecular Energy     =   -2.84 kcal/mol
USER        vdW + Hbond + desolv Energy     =   -2.64 kcal/mol
USER        Electrostatic Energy            =   -0.20 kcal/mol
USER    (2) Final Total Internal Energy     =  -13.17 kcal/mol
USER    (3) Torsional Free Energy           =   +7.16 kcal/mol
USER    (4) Unbound System's Energy  [=(2)] =  -13.17 kcal/mol
USER    
USER    
USER  
USER    DPF = D:/Protein_go_brrr/autodock/final/mut_Y35F/IHP/dock.dpf
USER    NEWDPF move	IHP_ideal_opt.pdbqt
USER    NEWDPF about	0.035000 0.082000 -0.065000
USER    NEWDPF tran0	-2.642977 16.737959 19.070959
USER    NEWDPF axisangle0	0.618932 0.780952 -0.083894 -137.879838
USER    NEWDPF quaternion0	0.577590 0.728787 -0.078290 -0.359347
USER    NEWDPF dihe0	-151.42 27.37 -180.00 131.71 101.09 86.13 40.93 -94.19 125.09 2.34 120.60 -77.83 -137.88 90.03 110.56 -123.43 98.08 74.15 49.89 2.63 -55.69 10.90 -15.79 -175.65 
USER  
USER                              x       y       z    vdW   Elec        q     RMS 
ATOM      1  C   UNL d   1      -3.191  17.019  17.457 -0.06 +0.04    +0.194    22.383
ATOM      2  C   UNL d   1      -3.980  15.976  18.251 -0.06 +0.09    +0.194    22.383
ATOM      3  C   UNL d   1      -3.056  15.047  19.041 -0.08 +0.04    +0.194    22.383
ATOM      4  C   UNL d   1      -2.051  15.797  19.912 -0.02 -0.02    +0.194    22.383
ATOM      5  C   UNL d   1      -1.323  16.923  19.190 -0.01 -0.03    +0.194    22.383
ATOM      6  C   UNL d   1      -2.239  17.816  18.351 -0.00 -0.01    +0.194    22.383
ATOM      7  O   UNL d   1      -4.121  17.946  16.892 -0.02 -0.03    -0.278    22.383
ATOM      8  P   UNL d   1      -5.026  17.463  15.667 -0.03 +0.09    +0.473    22.383
ATOM      9  O   UNL d   1      -4.402  17.611  14.324 -0.10 +0.02    -0.228    22.383
ATOM     10  O   UNL d   1      -5.388  15.951  16.028 -0.60 -0.35    -0.303    22.383
ATOM     11  H   UNL d   1      -5.738  15.907  16.937 +0.02 +0.18    +0.222    22.383
ATOM     12  O   UNL d   1      -6.421  18.196  15.870 -0.00 +0.02    -0.303    22.383
ATOM     13  H   UNL d   1      -6.547  18.538  16.783 +0.01 -0.01    +0.222    22.383
ATOM     14  O   UNL d   1      -4.847  16.649  19.172 -0.01 -0.04    -0.278    22.383
ATOM     15  P   UNL d   1      -6.358  16.122  19.248 +0.00 +0.07    +0.473    22.383
ATOM     16  O   UNL d   1      -7.020  16.172  20.590 +0.00 -0.01    -0.228    22.383
ATOM     17  O   UNL d   1      -7.124  16.983  18.149 +0.00 -0.03    -0.303    22.383
ATOM     18  H   UNL d   1      -7.027  16.587  17.262 +0.02 +0.04    +0.222    22.383
ATOM     19  O   UNL d   1      -6.313  14.690  18.558 -0.04 -0.12    -0.303    22.383
ATOM     20  H   UNL d   1      -5.864  14.032  19.120 +0.02 +0.08    +0.222    22.383
ATOM     21  O   UNL d   1      -1.397  18.578  17.489 -0.00 +0.06    -0.278    22.383
ATOM     22  P   UNL d   1      -1.930  19.947  16.869 +0.02 -0.09    +0.473    22.383
ATOM     23  O   UNL d   1      -0.981  21.094  16.771 +0.00 +0.05    -0.228    22.383
ATOM     24  O   UNL d   1      -2.535  19.461  15.479 -0.01 +0.09    -0.303    22.383
ATOM     25  H   UNL d   1      -2.929  18.562  15.613 +0.04 -0.04    +0.222    22.383
ATOM     26  O   UNL d   1      -3.254  20.204  17.735 +0.01 +0.03    -0.303    22.383
ATOM     27  H   UNL d   1      -4.011  19.753  17.307 +0.01 -0.02    +0.222    22.383
ATOM     28  O   UNL d   1      -3.865  14.308  19.947 -0.03 -0.04    -0.278    22.383
ATOM     29  P   UNL d   1      -3.884  12.717  19.895 -0.04 +0.03    +0.473    22.383
ATOM     30  O   UNL d   1      -5.161  12.078  20.304 -0.01 -0.02    -0.228    22.383
ATOM     31  O   UNL d   1      -3.404  12.481  18.386 -0.60 -0.09    -0.303    22.383
ATOM     32  H   UNL d   1      -2.425  12.374  18.381 -0.55 -0.23    +0.222    22.383
ATOM     33  O   UNL d   1      -2.587  12.339  20.739 -0.02 +0.05    -0.303    22.383
ATOM     34  H   UNL d   1      -1.887  13.017  20.573 +0.02 -0.06    +0.222    22.383
ATOM     35  O   UNL d   1      -0.764  17.742  20.215 +0.00 +0.03    -0.278    22.383
ATOM     36  P   UNL d   1       0.819  17.867  20.372 +0.02 -0.06    +0.473    22.383
ATOM     37  O   UNL d   1       1.324  19.222  20.752 +0.00 +0.02    -0.228    22.383
ATOM     38  O   UNL d   1       1.131  16.729  21.442 +0.00 +0.04    -0.303    22.383
ATOM     39  H   UNL d   1       0.772  15.875  21.117 +0.01 -0.04    +0.222    22.383
ATOM     40  O   UNL d   1       1.345  17.258  19.001 +0.00 +0.07    -0.303    22.383
ATOM     41  H   UNL d   1       0.817  16.477  18.723 +0.03 -0.07    +0.222    22.383
ATOM     42  O   UNL d   1      -1.061  14.845  20.315 -0.02 +0.07    -0.278    22.383
ATOM     43  P   UNL d   1       0.004  14.338  19.240 -0.04 -0.30    +0.473    22.383
ATOM     44  O   UNL d   1       1.443  14.591  19.527 -0.04 +0.10    -0.228    22.383
ATOM     45  O   UNL d   1      -0.367  12.799  19.082 -0.01 +0.39    -0.303    22.383
ATOM     46  H   UNL d   1      -1.330  12.673  18.961 -0.38 -0.27    +0.222    22.383
ATOM     47  O   UNL d   1      -0.545  14.949  17.864 -0.13 +0.22    -0.303    22.383
ATOM     48  H   UNL d   1      -0.025  15.747  17.635 +0.04 -0.12    +0.222    22.383
TER
ENDMDL
MODEL       98
USER    Run = 98
USER    Cluster Rank = 81
USER    Number of conformations in this cluster = 1
USER  
USER    RMSD from reference structure       = 18.421 A
USER  
USER    Estimated Free Energy of Binding    =   +4.38 kcal/mol  [=(1)+(2)+(3)-(4)]
USER    
USER    (1) Final Intermolecular Energy     =   -2.78 kcal/mol
USER        vdW + Hbond + desolv Energy     =   -2.79 kcal/mol
USER        Electrostatic Energy            =   +0.01 kcal/mol
USER    (2) Final Total Internal Energy     =  -14.40 kcal/mol
USER    (3) Torsional Free Energy           =   +7.16 kcal/mol
USER    (4) Unbound System's Energy  [=(2)] =  -14.40 kcal/mol
USER    
USER    
USER  
USER    DPF = D:/Protein_go_brrr/autodock/final/mut_Y35F/IHP/dock.dpf
USER    NEWDPF move	IHP_ideal_opt.pdbqt
USER    NEWDPF about	0.035000 0.082000 -0.065000
USER    NEWDPF tran0	8.207630 16.664601 -10.652784
USER    NEWDPF axisangle0	-0.723645 -0.645817 -0.243431 135.432006
USER    NEWDPF quaternion0	-0.669600 -0.597585 -0.225250 0.379198
USER    NEWDPF dihe0	-103.76 -12.66 -129.83 -1.51 -35.93 -179.72 -75.46 -38.21 86.86 65.64 -172.59 153.76 72.31 169.67 173.93 -170.61 116.01 162.37 31.82 -4.63 167.93 -13.39 -13.37 173.30 
USER  
USER                              x       y       z    vdW   Elec        q     RMS 
ATOM      1  C   UNL d   1       8.477  17.691 -12.016 -0.02 -0.00    +0.194    18.421
ATOM      2  C   UNL d   1       7.462  16.566 -12.226 -0.06 +0.00    +0.194    18.421
ATOM      3  C   UNL d   1       7.949  15.245 -11.626 -0.17 +0.01    +0.194    18.421
ATOM      4  C   UNL d   1       8.378  15.369 -10.167 -0.16 +0.01    +0.194    18.421
ATOM      5  C   UNL d   1       9.301  16.549  -9.890 -0.09 +0.00    +0.194    18.421
ATOM      6  C   UNL d   1       8.847  17.857 -10.541 -0.02 +0.00    +0.194    18.421
ATOM      7  O   UNL d   1       7.879  18.916 -12.446 -0.00 +0.00    -0.278    18.421
ATOM      8  P   UNL d   1       8.078  19.366 -13.966 -0.00 -0.01    +0.473    18.421
ATOM      9  O   UNL d   1       6.819  19.609 -14.722 +0.00 +0.01    -0.228    18.421
ATOM     10  O   UNL d   1       9.011  20.656 -13.869 +0.00 +0.01    -0.303    18.421
ATOM     11  H   UNL d   1       9.937  20.403 -14.042 +0.00 -0.01    +0.222    18.421
ATOM     12  O   UNL d   1       9.064  18.288 -14.589 -0.00 +0.01    -0.303    18.421
ATOM     13  H   UNL d   1       9.922  18.228 -14.112 +0.00 -0.01    +0.222    18.421
ATOM     14  O   UNL d   1       6.227  16.926 -11.595 -0.06 -0.02    -0.278    18.421
ATOM     15  P   UNL d   1       4.911  16.859 -12.505 -0.03 +0.01    +0.473    18.421
ATOM     16  O   UNL d   1       3.970  18.019 -12.412 -0.02 -0.00    -0.228    18.421
ATOM     17  O   UNL d   1       5.471  16.635 -13.979 -0.01 +0.00    -0.303    18.421
ATOM     18  H   UNL d   1       4.971  15.936 -14.443 +0.03 -0.00    +0.222    18.421
ATOM     19  O   UNL d   1       4.279  15.435 -12.183 -0.14 -0.02    -0.303    18.421
ATOM     20  H   UNL d   1       4.885  14.710 -12.421 +0.07 +0.02    +0.222    18.421
ATOM     21  O   UNL d   1       9.956  18.752 -10.487 -0.00 +0.01    -0.278    18.421
ATOM     22  P   UNL d   1      11.279  18.425 -11.316 +0.00 -0.03    +0.473    18.421
ATOM     23  O   UNL d   1      12.566  19.019 -10.852 -0.00 +0.02    -0.228    18.421
ATOM     24  O   UNL d   1      11.254  16.834 -11.355 -0.00 +0.02    -0.303    18.421
ATOM     25  H   UNL d   1      11.900  16.499 -10.682 +0.03 -0.02    +0.222    18.421
ATOM     26  O   UNL d   1      10.829  18.800 -12.808 -0.00 +0.01    -0.303    18.421
ATOM     27  H   UNL d   1       9.938  19.205 -12.783 +0.00 -0.01    +0.222    18.421
ATOM     28  O   UNL d   1       6.847  14.346 -11.620 -0.23 -0.03    -0.278    18.421
ATOM     29  P   UNL d   1       6.673  13.279 -12.789 -0.22 +0.04    +0.473    18.421
ATOM     30  O   UNL d   1       5.739  12.160 -12.501 -0.51 -0.04    -0.228    18.421
ATOM     31  O   UNL d   1       6.289  14.252 -14.000 -0.08 -0.00    -0.303    18.421
ATOM     32  H   UNL d   1       5.908  15.080 -13.629 +0.06 +0.00    +0.222    18.421
ATOM     33  O   UNL d   1       8.182  12.890 -13.114 -0.11 -0.02    -0.303    18.421
ATOM     34  H   UNL d   1       8.748  13.120 -12.337 +0.08 +0.01    +0.222    18.421
ATOM     35  O   UNL d   1       9.263  16.748  -8.478 -0.11 -0.02    -0.278    18.421
ATOM     36  P   UNL d   1      10.586  16.573  -7.605 -0.07 -0.03    +0.473    18.421
ATOM     37  O   UNL d   1      10.562  17.228  -6.260 -0.09 +0.02    -0.228    18.421
ATOM     38  O   UNL d   1      10.739  14.989  -7.559 -0.23 +0.02    -0.303    18.421
ATOM     39  H   UNL d   1      10.183  14.592  -8.264 +0.11 -0.01    +0.222    18.421
ATOM     40  O   UNL d   1      11.724  17.038  -8.614 -0.02 +0.04    -0.303    18.421
ATOM     41  H   UNL d   1      11.372  17.641  -9.306 +0.03 -0.02    +0.222    18.421
ATOM     42  O   UNL d   1       9.108  14.180  -9.846 -0.25 +0.01    -0.278    18.421
ATOM     43  P   UNL d   1      10.459  13.868 -10.636 -0.16 -0.05    +0.473    18.421
ATOM     44  O   UNL d   1      10.850  12.439 -10.788 -0.31 +0.05    -0.228    18.421
ATOM     45  O   UNL d   1      10.242  14.634 -12.014 -0.06 +0.02    -0.303    18.421
ATOM     46  H   UNL d   1      10.878  15.370 -12.117 +0.04 -0.01    +0.222    18.421
ATOM     47  O   UNL d   1      11.535  14.806  -9.907 -0.06 +0.04    -0.303    18.421
ATOM     48  H   UNL d   1      11.079  15.585  -9.527 +0.07 -0.02    +0.222    18.421
TER
ENDMDL
MODEL       81
USER    Run = 81
USER    Cluster Rank = 82
USER    Number of conformations in this cluster = 1
USER  
USER    RMSD from reference structure       = 16.984 A
USER  
USER    Estimated Free Energy of Binding    =   +4.47 kcal/mol  [=(1)+(2)+(3)-(4)]
USER    
USER    (1) Final Intermolecular Energy     =   -2.69 kcal/mol
USER        vdW + Hbond + desolv Energy     =   -2.55 kcal/mol
USER        Electrostatic Energy            =   -0.14 kcal/mol
USER    (2) Final Total Internal Energy     =  -14.87 kcal/mol
USER    (3) Torsional Free Energy           =   +7.16 kcal/mol
USER    (4) Unbound System's Energy  [=(2)] =  -14.87 kcal/mol
USER    
USER    
USER  
USER    DPF = D:/Protein_go_brrr/autodock/final/mut_Y35F/IHP/dock.dpf
USER    NEWDPF move	IHP_ideal_opt.pdbqt
USER    NEWDPF about	0.035000 0.082000 -0.065000
USER    NEWDPF tran0	5.676207 -18.682306 5.117686
USER    NEWDPF axisangle0	-0.909337 0.193400 -0.368379 -137.600298
USER    NEWDPF quaternion0	-0.847797 0.180312 -0.343449 -0.361622
USER    NEWDPF dihe0	78.87 107.51 137.55 12.26 90.43 -119.27 -156.34 -21.08 114.43 106.31 -178.49 -123.14 -76.61 34.31 67.93 22.54 38.58 -13.11 -147.61 -22.53 23.05 -17.64 -169.33 154.77 
USER  
USER                              x       y       z    vdW   Elec        q     RMS 
ATOM      1  C   UNL d   1       7.167 -18.392   5.941 -0.00 -0.02    +0.194    16.984
ATOM      2  C   UNL d   1       6.078 -17.339   6.155 -0.02 -0.02    +0.194    16.984
ATOM      3  C   UNL d   1       5.361 -16.992   4.848 -0.09 -0.04    +0.194    16.984
ATOM      4  C   UNL d   1       4.840 -18.218   4.103 -0.10 -0.04    +0.194    16.984
ATOM      5  C   UNL d   1       5.860 -19.341   3.967 -0.02 -0.02    +0.194    16.984
ATOM      6  C   UNL d   1       6.621 -19.647   5.259 -0.00 -0.02    +0.194    16.984
ATOM      7  O   UNL d   1       7.665 -18.785   7.222 -0.00 +0.02    -0.278    16.984
ATOM      8  P   UNL d   1       6.958 -20.007   7.969 +0.00 -0.03    +0.473    16.984
ATOM      9  O   UNL d   1       5.543 -20.251   7.579 -0.00 +0.01    -0.228    16.984
ATOM     10  O   UNL d   1       7.915 -21.248   7.670 +0.00 +0.01    -0.303    16.984
ATOM     11  H   UNL d   1       7.746 -21.582   6.769 +0.00 -0.01    +0.222    16.984
ATOM     12  O   UNL d   1       7.218 -19.752   9.515 -0.00 +0.01    -0.303    16.984
ATOM     13  H   UNL d   1       6.812 -18.918   9.842 +0.00 -0.01    +0.222    16.984
ATOM     14  O   UNL d   1       5.112 -17.848   7.083 -0.01 +0.03    -0.278    16.984
ATOM     15  P   UNL d   1       5.096 -17.179   8.538 -0.00 -0.04    +0.473    16.984
ATOM     16  O   UNL d   1       4.205 -15.991   8.721 -0.01 +0.02    -0.228    16.984
ATOM     17  O   UNL d   1       4.727 -18.383   9.514 -0.00 +0.02    -0.303    16.984
ATOM     18  H   UNL d   1       5.203 -19.198   9.263 +0.00 -0.01    +0.222    16.984
ATOM     19  O   UNL d   1       6.631 -16.946   8.885 -0.00 +0.02    -0.303    16.984
ATOM     20  H   UNL d   1       7.166 -17.740   8.702 +0.00 -0.01    +0.222    16.984
ATOM     21  O   UNL d   1       7.743 -20.448   4.897 -0.00 +0.02    -0.278    16.984
ATOM     22  P   UNL d   1       7.548 -22.008   4.623 -0.00 -0.02    +0.473    16.984
ATOM     23  O   UNL d   1       7.415 -22.463   3.209 -0.00 +0.01    -0.228    16.984
ATOM     24  O   UNL d   1       8.779 -22.634   5.413 +0.00 +0.01    -0.303    16.984
ATOM     25  H   UNL d   1       9.045 -21.997   6.125 +0.00 -0.01    +0.222    16.984
ATOM     26  O   UNL d   1       6.320 -22.357   5.593 -0.00 +0.01    -0.303    16.984
ATOM     27  H   UNL d   1       5.516 -21.899   5.272 +0.00 -0.01    +0.222    16.984
ATOM     28  O   UNL d   1       4.205 -16.234   5.182 -0.14 +0.09    -0.278    16.984
ATOM     29  P   UNL d   1       4.266 -14.643   5.208 -0.17 -0.16    +0.473    16.984
ATOM     30  O   UNL d   1       5.602 -14.048   4.944 -0.18 +0.07    -0.228    16.984
ATOM     31  O   UNL d   1       3.101 -14.302   4.166 -0.28 +0.17    -0.303    16.984
ATOM     32  H   UNL d   1       3.512 -14.015   3.318 -0.25 -0.19    +0.222    16.984
ATOM     33  O   UNL d   1       3.592 -14.305   6.611 -0.10 +0.07    -0.303    16.984
ATOM     34  H   UNL d   1       3.877 -14.981   7.274 +0.05 -0.04    +0.222    16.984
ATOM     35  O   UNL d   1       5.110 -20.508   3.636 -0.01 +0.02    -0.278    16.984
ATOM     36  P   UNL d   1       3.692 -20.772   4.316 -0.02 -0.04    +0.473    16.984
ATOM     37  O   UNL d   1       2.532 -20.070   3.684 -0.10 +0.02    -0.228    16.984
ATOM     38  O   UNL d   1       3.599 -22.361   4.269 -0.00 +0.01    -0.303    16.984
ATOM     39  H   UNL d   1       4.460 -22.742   4.548 +0.00 -0.01    +0.222    16.984
ATOM     40  O   UNL d   1       3.983 -20.451   5.846 -0.01 +0.03    -0.303    16.984
ATOM     41  H   UNL d   1       4.214 -19.505   5.982 +0.02 -0.03    +0.222    16.984
ATOM     42  O   UNL d   1       4.508 -17.789   2.779 -0.18 +0.06    -0.278    16.984
ATOM     43  P   UNL d   1       5.514 -16.821   2.006 -0.18 -0.12    +0.473    16.984
ATOM     44  O   UNL d   1       6.969 -16.980   2.284 -0.08 +0.04    -0.228    16.984
ATOM     45  O   UNL d   1       5.114 -17.046   0.483 -0.13 +0.10    -0.303    16.984
ATOM     46  H   UNL d   1       4.652 -16.267   0.115 -0.35 -0.17    +0.222    16.984
ATOM     47  O   UNL d   1       4.911 -15.364   2.290 -0.24 +0.12    -0.303    16.984
ATOM     48  H   UNL d   1       4.837 -15.227   3.257 +0.06 -0.09    +0.222    16.984
TER
ENDMDL
MODEL        9
USER    Run = 9
USER    Cluster Rank = 83
USER    Number of conformations in this cluster = 1
USER  
USER    RMSD from reference structure       = 18.199 A
USER  
USER    Estimated Free Energy of Binding    =   +4.48 kcal/mol  [=(1)+(2)+(3)-(4)]
USER    
USER    (1) Final Intermolecular Energy     =   -2.68 kcal/mol
USER        vdW + Hbond + desolv Energy     =   -2.72 kcal/mol
USER        Electrostatic Energy            =   +0.04 kcal/mol
USER    (2) Final Total Internal Energy     =  -15.67 kcal/mol
USER    (3) Torsional Free Energy           =   +7.16 kcal/mol
USER    (4) Unbound System's Energy  [=(2)] =  -15.67 kcal/mol
USER    
USER    
USER  
USER    DPF = D:/Protein_go_brrr/autodock/final/mut_Y35F/IHP/dock.dpf
USER    NEWDPF move	IHP_ideal_opt.pdbqt
USER    NEWDPF about	0.035000 0.082000 -0.065000
USER    NEWDPF tran0	-10.648709 -11.926769 -14.193693
USER    NEWDPF axisangle0	0.177205 0.108310 -0.978196 128.034435
USER    NEWDPF quaternion0	0.159295 0.097362 -0.879325 0.438101
USER    NEWDPF dihe0	-125.08 24.34 96.71 75.85 93.83 72.53 35.01 -145.35 11.08 45.41 87.91 -124.70 -135.66 128.53 -113.64 -77.97 155.12 105.45 26.38 -10.17 -9.50 23.31 -17.08 -3.00 
USER  
USER                              x       y       z    vdW   Elec        q     RMS 
ATOM      1  C   UNL d   1     -10.990 -10.417 -13.426 +0.08 +0.01    +0.194    18.199
ATOM      2  C   UNL d   1      -9.555 -10.926 -13.276 -0.15 -0.00    +0.194    18.199
ATOM      3  C   UNL d   1      -9.514 -12.425 -12.971 -0.17 +0.00    +0.194    18.199
ATOM      4  C   UNL d   1     -10.322 -13.262 -13.959 -0.10 +0.01    +0.194    18.199
ATOM      5  C   UNL d   1     -11.723 -12.725 -14.227 -0.08 +0.02    +0.194    18.199
ATOM      6  C   UNL d   1     -11.771 -11.215 -14.471 -0.07 +0.01    +0.194    18.199
ATOM      7  O   UNL d   1     -10.938  -9.062 -13.876 -0.07 +0.00    -0.278    18.199
ATOM      8  P   UNL d   1     -11.043  -7.896 -12.789 -0.12 -0.03    +0.473    18.199
ATOM      9  O   UNL d   1     -12.430  -7.525 -12.394 -0.13 -0.00    -0.228    18.199
ATOM     10  O   UNL d   1     -10.162  -8.424 -11.569 -0.03 +0.09    -0.303    18.199
ATOM     11  H   UNL d   1      -9.216  -8.310 -11.775 -0.40 -0.10    +0.222    18.199
ATOM     12  O   UNL d   1     -10.146  -6.716 -13.361 -0.07 +0.02    -0.303    18.199
ATOM     13  H   UNL d   1      -9.486  -7.020 -14.024 +0.03 -0.01    +0.222    18.199
ATOM     14  O   UNL d   1      -8.845 -10.689 -14.499 -0.03 +0.00    -0.278    18.199
ATOM     15  P   UNL d   1      -7.532  -9.778 -14.399 -0.00 -0.02    +0.473    18.199
ATOM     16  O   UNL d   1      -6.841  -9.452 -15.686 -0.01 +0.00    -0.228    18.199
ATOM     17  O   UNL d   1      -8.019  -8.480 -13.614 -0.05 +0.03    -0.303    18.199
ATOM     18  H   UNL d   1      -8.963  -8.548 -13.373 +0.05 -0.02    +0.222    18.199
ATOM     19  O   UNL d   1      -6.633 -10.497 -13.302 -0.05 +0.03    -0.303    18.199
ATOM     20  H   UNL d   1      -6.930 -11.411 -13.134 +0.09 -0.02    +0.222    18.199
ATOM     21  O   UNL d   1     -13.138 -10.823 -14.360 -0.08 -0.02    -0.278    18.199
ATOM     22  P   UNL d   1     -13.926 -10.325 -15.654 -0.02 +0.01    +0.473    18.199
ATOM     23  O   UNL d   1     -13.780  -8.898 -16.063 -0.01 -0.00    -0.228    18.199
ATOM     24  O   UNL d   1     -13.459 -11.384 -16.747 -0.01 -0.01    -0.303    18.199
ATOM     25  H   UNL d   1     -13.234 -12.229 -16.281 +0.01 +0.01    +0.222    18.199
ATOM     26  O   UNL d   1     -15.419 -10.816 -15.335 -0.01 -0.01    -0.303    18.199
ATOM     27  H   UNL d   1     -15.604 -11.633 -15.841 +0.01 +0.01    +0.222    18.199
ATOM     28  O   UNL d   1      -8.167 -12.856 -13.125 -0.11 +0.01    -0.278    18.199
ATOM     29  P   UNL d   1      -7.492 -13.790 -12.026 -0.29 -0.06    +0.473    18.199
ATOM     30  O   UNL d   1      -6.535 -13.115 -11.112 -0.28 +0.11    -0.228    18.199
ATOM     31  O   UNL d   1      -8.799 -14.432 -11.363 -0.35 +0.00    -0.303    18.199
ATOM     32  H   UNL d   1      -9.055 -15.230 -11.882 +0.09 +0.01    +0.222    18.199
ATOM     33  O   UNL d   1      -6.921 -14.986 -12.909 -0.24 -0.02    -0.303    18.199
ATOM     34  H   UNL d   1      -7.633 -15.661 -13.033 +0.07 +0.03    +0.222    18.199
ATOM     35  O   UNL d   1     -12.157 -13.358 -15.428 -0.03 -0.02    -0.278    18.199
ATOM     36  P   UNL d   1     -13.372 -14.392 -15.399 -0.01 +0.02    +0.473    18.199
ATOM     37  O   UNL d   1     -13.457 -15.320 -16.569 -0.00 -0.01    -0.228    18.199
ATOM     38  O   UNL d   1     -13.147 -15.120 -14.001 -0.03 -0.02    -0.303    18.199
ATOM     39  H   UNL d   1     -12.260 -15.541 -13.997 +0.03 +0.02    +0.222    18.199
ATOM     40  O   UNL d   1     -14.620 -13.442 -15.140 -0.02 -0.01    -0.303    18.199
ATOM     41  H   UNL d   1     -14.360 -12.494 -15.124 +0.02 +0.01    +0.222    18.199
ATOM     42  O   UNL d   1     -10.474 -14.560 -13.376 -0.09 -0.02    -0.278    18.199
ATOM     43  P   UNL d   1      -9.773 -15.808 -14.081 -0.03 +0.05    +0.473    18.199
ATOM     44  O   UNL d   1      -9.369 -16.949 -13.212 -0.11 -0.03    -0.228    18.199
ATOM     45  O   UNL d   1     -10.815 -16.195 -15.220 -0.01 -0.03    -0.303    18.199
ATOM     46  H   UNL d   1     -11.466 -15.480 -15.368 +0.02 +0.02    +0.222    18.199
ATOM     47  O   UNL d   1      -8.594 -15.135 -14.932 -0.03 -0.04    -0.303    18.199
ATOM     48  H   UNL d   1      -8.043 -14.582 -14.339 +0.06 +0.02    +0.222    18.199
TER
ENDMDL
MODEL       71
USER    Run = 71
USER    Cluster Rank = 84
USER    Number of conformations in this cluster = 1
USER  
USER    RMSD from reference structure       = 19.722 A
USER  
USER    Estimated Free Energy of Binding    =   +4.51 kcal/mol  [=(1)+(2)+(3)-(4)]
USER    
USER    (1) Final Intermolecular Energy     =   -2.65 kcal/mol
USER        vdW + Hbond + desolv Energy     =   -2.60 kcal/mol
USER        Electrostatic Energy            =   -0.05 kcal/mol
USER    (2) Final Total Internal Energy     =  -15.59 kcal/mol
USER    (3) Torsional Free Energy           =   +7.16 kcal/mol
USER    (4) Unbound System's Energy  [=(2)] =  -15.59 kcal/mol
USER    
USER    
USER  
USER    DPF = D:/Protein_go_brrr/autodock/final/mut_Y35F/IHP/dock.dpf
USER    NEWDPF move	IHP_ideal_opt.pdbqt
USER    NEWDPF about	0.035000 0.082000 -0.065000
USER    NEWDPF tran0	-10.734083 -19.475839 -7.048757
USER    NEWDPF axisangle0	-0.890166 -0.450598 0.067571 116.408263
USER    NEWDPF quaternion0	-0.756580 -0.382977 0.057431 0.526895
USER    NEWDPF dihe0	138.35 83.59 52.56 30.28 23.98 -106.87 -164.65 15.98 67.15 86.07 107.42 -133.55 -46.50 173.73 -58.69 54.03 57.71 96.56 40.50 -19.44 174.82 158.05 27.14 -43.26 
USER  
USER                              x       y       z    vdW   Elec        q     RMS 
ATOM      1  C   UNL d   1     -10.175 -19.357  -8.679 -0.12 +0.00    +0.194    19.722
ATOM      2  C   UNL d   1     -11.680 -19.572  -8.511 -0.06 +0.01    +0.194    19.722
ATOM      3  C   UNL d   1     -11.986 -20.621  -7.439 -0.02 +0.00    +0.194    19.722
ATOM      4  C   UNL d   1     -11.290 -20.342  -6.109 -0.03 +0.00    +0.194    19.722
ATOM      5  C   UNL d   1      -9.810 -20.009  -6.241 -0.07 -0.00    +0.194    19.722
ATOM      6  C   UNL d   1      -9.497 -19.006  -7.353 -0.12 -0.01    +0.194    19.722
ATOM      7  O   UNL d   1      -9.979 -18.250  -9.563 -0.00 +0.01    -0.278    19.722
ATOM      8  P   UNL d   1     -10.064 -18.512 -11.137 -0.10 +0.03    +0.473    19.722
ATOM      9  O   UNL d   1     -10.464 -19.892 -11.526 -0.04 -0.03    -0.228    19.722
ATOM     10  O   UNL d   1     -11.074 -17.394 -11.660 -0.08 -0.03    -0.303    19.722
ATOM     11  H   UNL d   1     -11.606 -17.058 -10.914 +0.06 +0.02    +0.222    19.722
ATOM     12  O   UNL d   1      -8.675 -18.003 -11.716 -0.19 -0.03    -0.303    19.722
ATOM     13  H   UNL d   1      -7.913 -18.211 -11.129 -0.33 +0.00    +0.222    19.722
ATOM     14  O   UNL d   1     -12.289 -18.334  -8.124 -0.07 -0.03    -0.278    19.722
ATOM     15  P   UNL d   1     -13.262 -17.649  -9.196 -0.06 +0.05    +0.473    19.722
ATOM     16  O   UNL d   1     -13.035 -16.198  -9.480 -0.18 -0.04    -0.228    19.722
ATOM     17  O   UNL d   1     -13.114 -18.563 -10.493 -0.03 -0.02    -0.303    19.722
ATOM     18  H   UNL d   1     -12.179 -18.794 -10.655 +0.04 +0.02    +0.222    19.722
ATOM     19  O   UNL d   1     -14.726 -18.031  -8.703 -0.02 -0.02    -0.303    19.722
ATOM     20  H   UNL d   1     -14.736 -18.884  -8.230 +0.02 +0.01    +0.222    19.722
ATOM     21  O   UNL d   1      -8.090 -19.062  -7.575 -0.25 +0.03    -0.278    19.722
ATOM     22  P   UNL d   1      -7.453 -20.330  -8.304 -0.16 -0.01    +0.473    19.722
ATOM     23  O   UNL d   1      -8.145 -21.644  -8.165 -0.05 -0.00    -0.228    19.722
ATOM     24  O   UNL d   1      -7.309 -19.807  -9.801 -0.17 -0.02    -0.303    19.722
ATOM     25  H   UNL d   1      -8.132 -19.306 -10.033 -0.04 -0.01    +0.222    19.722
ATOM     26  O   UNL d   1      -5.937 -20.276  -7.787 -0.16 +0.02    -0.303    19.722
ATOM     27  H   UNL d   1      -5.893 -20.641  -6.880 +0.06 -0.03    +0.222    19.722
ATOM     28  O   UNL d   1     -13.378 -20.553  -7.159 -0.01 -0.01    -0.278    19.722
ATOM     29  P   UNL d   1     -13.919 -19.607  -5.998 -0.00 +0.01    +0.473    19.722
ATOM     30  O   UNL d   1     -13.091 -18.408  -5.710 -0.06 -0.01    -0.228    19.722
ATOM     31  O   UNL d   1     -15.411 -19.351  -6.519 -0.00 -0.01    -0.303    19.722
ATOM     32  H   UNL d   1     -15.499 -18.401  -6.765 +0.02 +0.01    +0.222    19.722
ATOM     33  O   UNL d   1     -14.136 -20.635  -4.802 -0.00 -0.00    -0.303    19.722
ATOM     34  H   UNL d   1     -13.256 -20.878  -4.424 +0.00 +0.00    +0.222    19.722
ATOM     35  O   UNL d   1      -9.440 -19.396  -5.007 -0.06 +0.01    -0.278    19.722
ATOM     36  P   UNL d   1      -7.915 -19.383  -4.541 -0.11 -0.04    +0.473    19.722
ATOM     37  O   UNL d   1      -7.190 -18.090  -4.742 -0.23 +0.04    -0.228    19.722
ATOM     38  O   UNL d   1      -8.035 -19.835  -3.019 -0.03 +0.00    -0.303    19.722
ATOM     39  H   UNL d   1      -8.984 -19.944  -2.790 +0.04 +0.00    +0.222    19.722
ATOM     40  O   UNL d   1      -7.324 -20.664  -5.275 -0.09 +0.03    -0.303    19.722
ATOM     41  H   UNL d   1      -7.622 -20.718  -6.210 +0.06 -0.01    +0.222    19.722
ATOM     42  O   UNL d   1     -11.385 -21.542  -5.333 -0.00 -0.00    -0.278    19.722
ATOM     43  P   UNL d   1     -11.334 -21.437  -3.742 +0.00 -0.00    +0.473    19.722
ATOM     44  O   UNL d   1     -12.214 -22.354  -2.965 +0.00 +0.00    -0.228    19.722
ATOM     45  O   UNL d   1      -9.783 -21.604  -3.430 +0.00 -0.00    -0.303    19.722
ATOM     46  H   UNL d   1      -9.231 -21.201  -4.131 +0.03 -0.00    +0.222    19.722
ATOM     47  O   UNL d   1     -11.554 -19.872  -3.471 -0.01 +0.00    -0.303    19.722
ATOM     48  H   UNL d   1     -12.292 -19.549  -4.029 +0.02 +0.00    +0.222    19.722
TER
ENDMDL
MODEL        8
USER    Run = 8
USER    Cluster Rank = 85
USER    Number of conformations in this cluster = 1
USER  
USER    RMSD from reference structure       = 18.835 A
USER  
USER    Estimated Free Energy of Binding    =   +4.56 kcal/mol  [=(1)+(2)+(3)-(4)]
USER    
USER    (1) Final Intermolecular Energy     =   -2.60 kcal/mol
USER        vdW + Hbond + desolv Energy     =   -2.62 kcal/mol
USER        Electrostatic Energy            =   +0.02 kcal/mol
USER    (2) Final Total Internal Energy     =  -14.31 kcal/mol
USER    (3) Torsional Free Energy           =   +7.16 kcal/mol
USER    (4) Unbound System's Energy  [=(2)] =  -14.31 kcal/mol
USER    
USER    
USER  
USER    DPF = D:/Protein_go_brrr/autodock/final/mut_Y35F/IHP/dock.dpf
USER    NEWDPF move	IHP_ideal_opt.pdbqt
USER    NEWDPF about	0.035000 0.082000 -0.065000
USER    NEWDPF tran0	-17.113803 -10.026125 -9.405836
USER    NEWDPF axisangle0	0.245923 -0.834082 0.493791 86.844560
USER    NEWDPF quaternion0	0.169040 -0.573323 0.339417 0.726307
USER    NEWDPF dihe0	-178.27 11.32 5.93 -164.69 75.69 -165.05 -19.68 -94.63 -13.59 -9.38 85.78 -99.78 26.04 -86.65 120.36 67.19 -180.00 105.57 4.26 11.24 -18.93 -4.30 169.32 7.89 
USER  
USER                              x       y       z    vdW   Elec        q     RMS 
ATOM      1  C   UNL d   1     -16.489 -11.633  -9.516 -0.19 +0.02    +0.194    18.835
ATOM      2  C   UNL d   1     -17.220 -11.296  -8.215 -0.12 +0.02    +0.194    18.835
ATOM      3  C   UNL d   1     -16.834  -9.910  -7.692 -0.23 +0.01    +0.194    18.835
ATOM      4  C   UNL d   1     -16.982  -8.809  -8.739 -0.15 +0.01    +0.194    18.835
ATOM      5  C   UNL d   1     -16.367  -9.151 -10.090 -0.15 +0.01    +0.194    18.835
ATOM      6  C   UNL d   1     -16.702 -10.560 -10.584 -0.14 +0.02    +0.194    18.835
ATOM      7  O   UNL d   1     -17.029 -12.855 -10.026 -0.11 -0.02    -0.278    18.835
ATOM      8  P   UNL d   1     -16.053 -14.111 -10.176 -0.12 +0.05    +0.473    18.835
ATOM      9  O   UNL d   1     -15.750 -14.829  -8.907 -0.15 -0.03    -0.228    18.835
ATOM     10  O   UNL d   1     -16.772 -15.032 -11.262 -0.02 -0.02    -0.303    18.835
ATOM     11  H   UNL d   1     -17.358 -14.485 -11.818 +0.02 +0.01    +0.222    18.835
ATOM     12  O   UNL d   1     -14.797 -13.565 -10.981 -0.16 -0.05    -0.303    18.835
ATOM     13  H   UNL d   1     -15.033 -12.874 -11.641 +0.04 +0.03    +0.222    18.835
ATOM     14  O   UNL d   1     -18.633 -11.316  -8.454 -0.05 -0.01    -0.278    18.835
ATOM     15  P   UNL d   1     -19.549 -11.895  -7.275 -0.03 +0.00    +0.473    18.835
ATOM     16  O   UNL d   1     -18.945 -12.961  -6.416 -0.06 -0.00    -0.228    18.835
ATOM     17  O   UNL d   1     -19.977 -10.603  -6.447 -0.01 +0.00    -0.303    18.835
ATOM     18  H   UNL d   1     -19.333 -10.411  -5.738 +0.03 -0.01    +0.222    18.835
ATOM     19  O   UNL d   1     -20.916 -12.283  -7.990 -0.00 +0.00    -0.303    18.835
ATOM     20  H   UNL d   1     -21.241 -13.155  -7.697 +0.01 -0.00    +0.222    18.835
ATOM     21  O   UNL d   1     -15.802 -10.847 -11.652 -0.09 -0.03    -0.278    18.835
ATOM     22  P   UNL d   1     -16.375 -11.200 -13.098 -0.05 +0.03    +0.473    18.835
ATOM     23  O   UNL d   1     -15.548 -10.849 -14.289 -0.04 -0.01    -0.228    18.835
ATOM     24  O   UNL d   1     -16.707 -12.749 -12.948 -0.03 -0.01    -0.303    18.835
ATOM     25  H   UNL d   1     -16.616 -12.993 -11.992 +0.04 +0.01    +0.222    18.835
ATOM     26  O   UNL d   1     -17.836 -10.541 -13.039 -0.01 -0.01    -0.303    18.835
ATOM     27  H   UNL d   1     -17.852  -9.858 -12.338 +0.02 +0.01    +0.222    18.835
ATOM     28  O   UNL d   1     -17.750  -9.573  -6.657 -0.11 -0.00    -0.278    18.835
ATOM     29  P   UNL d   1     -17.288  -9.603  -5.133 -0.13 -0.02    +0.473    18.835
ATOM     30  O   UNL d   1     -15.934  -9.056  -4.863 -0.28 +0.01    -0.228    18.835
ATOM     31  O   UNL d   1     -18.525  -8.848  -4.453 -0.04 +0.02    -0.303    18.835
ATOM     32  H   UNL d   1     -19.339  -9.052  -4.968 +0.04 -0.01    +0.222    18.835
ATOM     33  O   UNL d   1     -17.543 -11.124  -4.737 -0.11 +0.00    -0.303    18.835
ATOM     34  H   UNL d   1     -18.351 -11.447  -5.205 +0.04 -0.00    +0.222    18.835
ATOM     35  O   UNL d   1     -16.939  -8.233 -11.019 -0.04 -0.01    -0.278    18.835
ATOM     36  P   UNL d   1     -18.517  -8.197 -11.247 -0.00 +0.01    +0.473    18.835
ATOM     37  O   UNL d   1     -18.961  -8.117 -12.673 -0.00 -0.00    -0.228    18.835
ATOM     38  O   UNL d   1     -18.986  -9.516 -10.488 -0.01 -0.01    -0.303    18.835
ATOM     39  H   UNL d   1     -18.882 -10.286 -11.088 +0.02 +0.00    +0.222    18.835
ATOM     40  O   UNL d   1     -18.973  -7.018 -10.282 -0.00 -0.00    -0.303    18.835
ATOM     41  H   UNL d   1     -18.619  -7.134  -9.373 +0.02 +0.00    +0.222    18.835
ATOM     42  O   UNL d   1     -16.285  -7.664  -8.237 -0.13 -0.01    -0.278    18.835
ATOM     43  P   UNL d   1     -17.127  -6.458  -7.621 -0.03 +0.01    +0.473    18.835
ATOM     44  O   UNL d   1     -16.475  -5.633  -6.565 -0.08 -0.01    -0.228    18.835
ATOM     45  O   UNL d   1     -17.558  -5.637  -8.914 -0.01 -0.01    -0.303    18.835
ATOM     46  H   UNL d   1     -17.396  -6.147  -9.732 +0.02 +0.00    +0.222    18.835
ATOM     47  O   UNL d   1     -18.509  -7.153  -7.200 -0.02 -0.00    -0.303    18.835
ATOM     48  H   UNL d   1     -18.386  -7.627  -6.351 +0.04 +0.00    +0.222    18.835
TER
ENDMDL
MODEL       93
USER    Run = 93
USER    Cluster Rank = 86
USER    Number of conformations in this cluster = 1
USER  
USER    RMSD from reference structure       = 19.991 A
USER  
USER    Estimated Free Energy of Binding    =   +4.58 kcal/mol  [=(1)+(2)+(3)-(4)]
USER    
USER    (1) Final Intermolecular Energy     =   -2.58 kcal/mol
USER        vdW + Hbond + desolv Energy     =   -2.53 kcal/mol
USER        Electrostatic Energy            =   -0.05 kcal/mol
USER    (2) Final Total Internal Energy     =  -12.65 kcal/mol
USER    (3) Torsional Free Energy           =   +7.16 kcal/mol
USER    (4) Unbound System's Energy  [=(2)] =  -12.65 kcal/mol
USER    
USER    
USER  
USER    DPF = D:/Protein_go_brrr/autodock/final/mut_Y35F/IHP/dock.dpf
USER    NEWDPF move	IHP_ideal_opt.pdbqt
USER    NEWDPF about	0.035000 0.082000 -0.065000
USER    NEWDPF tran0	-6.796829 0.339280 20.698763
USER    NEWDPF axisangle0	-0.664777 0.470332 -0.580395 63.256375
USER    NEWDPF quaternion0	-0.348612 0.246645 -0.304362 0.851469
USER    NEWDPF dihe0	119.60 100.44 72.83 99.85 31.00 -23.80 -51.79 -65.20 180.00 116.76 42.51 -93.23 -88.48 110.44 -64.35 -165.01 7.96 -67.46 -140.96 -12.30 -165.77 4.35 145.46 173.53 
USER  
USER                              x       y       z    vdW   Elec        q     RMS 
ATOM      1  C   UNL d   1      -5.480  -0.323  21.600 -0.01 +0.00    +0.194    19.991
ATOM      2  C   UNL d   1      -5.713  -0.940  20.220 -0.05 +0.01    +0.194    19.991
ATOM      3  C   UNL d   1      -7.200  -1.180  19.950 -0.07 +0.02    +0.194    19.991
ATOM      4  C   UNL d   1      -8.061   0.060  20.181 +0.04 +0.02    +0.194    19.991
ATOM      5  C   UNL d   1      -7.780   0.775  21.496 -0.04 +0.01    +0.194    19.991
ATOM      6  C   UNL d   1      -6.290   0.959  21.795 -0.01 +0.00    +0.194    19.991
ATOM      7  O   UNL d   1      -4.098   0.027  21.704 +0.00 +0.00    -0.278    19.991
ATOM      8  P   UNL d   1      -3.670   1.533  21.388 +0.01 -0.01    +0.473    19.991
ATOM      9  O   UNL d   1      -4.422   2.184  20.281 -0.04 -0.00    -0.228    19.991
ATOM     10  O   UNL d   1      -3.835   2.284  22.786 +0.00 +0.01    -0.303    19.991
ATOM     11  H   UNL d   1      -4.626   1.947  23.246 +0.01 -0.00    +0.222    19.991
ATOM     12  O   UNL d   1      -2.090   1.487  21.220 +0.00 +0.01    -0.303    19.991
ATOM     13  H   UNL d   1      -1.793   0.838  20.543 +0.02 -0.01    +0.222    19.991
ATOM     14  O   UNL d   1      -5.205  -0.050  19.218 -0.10 -0.01    -0.278    19.991
ATOM     15  P   UNL d   1      -4.037  -0.618  18.282 -0.14 -0.03    +0.473    19.991
ATOM     16  O   UNL d   1      -3.727   0.164  17.044 -0.30 +0.02    -0.228    19.991
ATOM     17  O   UNL d   1      -2.785  -0.747  19.259 -0.03 +0.02    -0.303    19.991
ATOM     18  H   UNL d   1      -2.878  -0.154  20.029 +0.04 -0.01    +0.222    19.991
ATOM     19  O   UNL d   1      -4.420  -2.144  18.051 -0.10 +0.03    -0.303    19.991
ATOM     20  H   UNL d   1      -5.379  -2.259  17.917 +0.08 -0.01    +0.222    19.991
ATOM     21  O   UNL d   1      -6.187   1.314  23.172 +0.00 -0.00    -0.278    19.991
ATOM     22  P   UNL d   1      -5.986   0.174  24.270 +0.01 -0.00    +0.473    19.991
ATOM     23  O   UNL d   1      -6.643  -1.146  24.044 +0.00 +0.00    -0.228    19.991
ATOM     24  O   UNL d   1      -4.400   0.118  24.395 +0.00 +0.01    -0.303    19.991
ATOM     25  H   UNL d   1      -4.014   0.290  23.499 +0.00 -0.00    +0.222    19.991
ATOM     26  O   UNL d   1      -6.397   0.942  25.616 +0.00 +0.00    -0.303    19.991
ATOM     27  H   UNL d   1      -6.590   0.284  26.316 +0.00 -0.00    +0.222    19.991
ATOM     28  O   UNL d   1      -7.341  -1.485  18.569 -0.71 -0.08    -0.278    19.991
ATOM     29  P   UNL d   1      -7.845  -2.925  18.111 -0.11 +0.04    +0.473    19.991
ATOM     30  O   UNL d   1      -8.197  -3.053  16.673 -0.32 -0.03    -0.228    19.991
ATOM     31  O   UNL d   1      -6.637  -3.827  18.646 -0.06 +0.00    -0.303    19.991
ATOM     32  H   UNL d   1      -5.974  -3.240  19.077 +0.05 -0.00    +0.222    19.991
ATOM     33  O   UNL d   1      -9.001  -3.225  19.164 -0.04 -0.01    -0.303    19.991
ATOM     34  H   UNL d   1      -9.012  -2.506  19.842 +0.04 +0.01    +0.222    19.991
ATOM     35  O   UNL d   1      -8.344   2.077  21.358 -0.03 -0.01    -0.278    19.991
ATOM     36  P   UNL d   1      -7.520   3.240  20.642 -0.04 +0.04    +0.473    19.991
ATOM     37  O   UNL d   1      -6.980   2.907  19.287 -0.59 -0.07    -0.228    19.991
ATOM     38  O   UNL d   1      -8.570   4.437  20.651 -0.02 -0.01    -0.303    19.991
ATOM     39  H   UNL d   1      -8.267   5.125  21.282 +0.02 +0.01    +0.222    19.991
ATOM     40  O   UNL d   1      -6.465   3.647  21.760 -0.00 -0.01    -0.303    19.991
ATOM     41  H   UNL d   1      -5.747   2.981  21.842 +0.02 +0.00    +0.222    19.991
ATOM     42  O   UNL d   1      -9.422  -0.382  20.224 -0.07 -0.02    -0.278    19.991
ATOM     43  P   UNL d   1      -9.868  -1.392  21.374 -0.00 +0.01    +0.473    19.991
ATOM     44  O   UNL d   1      -8.803  -2.203  22.028 -0.00 -0.00    -0.228    19.991
ATOM     45  O   UNL d   1     -10.675  -0.451  22.372 -0.00 -0.00    -0.303    19.991
ATOM     46  H   UNL d   1     -10.330   0.464  22.358 +0.01 +0.00    +0.222    19.991
ATOM     47  O   UNL d   1     -11.051  -2.229  20.688 -0.00 -0.00    -0.303    19.991
ATOM     48  H   UNL d   1     -10.667  -2.979  20.188 +0.03 -0.00    +0.222    19.991
TER
ENDMDL
MODEL       96
USER    Run = 96
USER    Cluster Rank = 87
USER    Number of conformations in this cluster = 1
USER  
USER    RMSD from reference structure       = 16.739 A
USER  
USER    Estimated Free Energy of Binding    =   +4.70 kcal/mol  [=(1)+(2)+(3)-(4)]
USER    
USER    (1) Final Intermolecular Energy     =   -2.46 kcal/mol
USER        vdW + Hbond + desolv Energy     =   -2.46 kcal/mol
USER        Electrostatic Energy            =   -0.00 kcal/mol
USER    (2) Final Total Internal Energy     =  -14.34 kcal/mol
USER    (3) Torsional Free Energy           =   +7.16 kcal/mol
USER    (4) Unbound System's Energy  [=(2)] =  -14.34 kcal/mol
USER    
USER    
USER  
USER    DPF = D:/Protein_go_brrr/autodock/final/mut_Y35F/IHP/dock.dpf
USER    NEWDPF move	IHP_ideal_opt.pdbqt
USER    NEWDPF about	0.035000 0.082000 -0.065000
USER    NEWDPF tran0	-15.275864 -5.774029 -9.723842
USER    NEWDPF axisangle0	0.065596 -0.534688 -0.842500 -113.806350
USER    NEWDPF quaternion0	0.054953 -0.447934 -0.705804 -0.546056
USER    NEWDPF dihe0	105.73 120.97 36.39 33.61 5.86 -91.02 -86.43 -24.94 149.51 42.48 171.55 -92.67 -49.80 170.89 4.75 41.45 163.82 77.38 52.02 -6.16 -60.68 -6.09 -179.39 23.41 
USER  
USER                              x       y       z    vdW   Elec        q     RMS 
ATOM      1  C   UNL d   1     -16.863  -6.347  -9.354 -0.05 +0.00    +0.194    16.739
ATOM      2  C   UNL d   1     -16.738  -5.533 -10.643 -0.01 +0.00    +0.194    16.739
ATOM      3  C   UNL d   1     -15.851  -4.301 -10.451 -0.01 +0.00    +0.194    16.739
ATOM      4  C   UNL d   1     -14.490  -4.628  -9.841 -0.05 +0.01    +0.194    16.739
ATOM      5  C   UNL d   1     -14.561  -5.534  -8.618 -0.14 +0.01    +0.194    16.739
ATOM      6  C   UNL d   1     -15.496  -6.733  -8.789 -0.16 +0.00    +0.194    16.739
ATOM      7  O   UNL d   1     -17.557  -7.559  -9.658 -0.03 -0.01    -0.278    16.739
ATOM      8  P   UNL d   1     -19.114  -7.477 -10.004 -0.00 +0.01    +0.473    16.739
ATOM      9  O   UNL d   1     -19.686  -6.103 -10.015 -0.00 -0.00    -0.228    16.739
ATOM     10  O   UNL d   1     -19.237  -8.219 -11.411 -0.00 -0.00    -0.303    16.739
ATOM     11  H   UNL d   1     -18.597  -7.837 -12.040 +0.01 +0.00    +0.222    16.739
ATOM     12  O   UNL d   1     -19.811  -8.511  -9.020 -0.01 -0.00    -0.303    16.739
ATOM     13  H   UNL d   1     -19.881  -8.178  -8.097 +0.01 +0.00    +0.222    16.739
ATOM     14  O   UNL d   1     -16.159  -6.358 -11.662 -0.02 -0.01    -0.278    16.739
ATOM     15  P   UNL d   1     -16.980  -6.486 -13.031 -0.00 +0.01    +0.473    16.739
ATOM     16  O   UNL d   1     -17.143  -7.864 -13.590 -0.01 -0.00    -0.228    16.739
ATOM     17  O   UNL d   1     -18.373  -5.779 -12.716 -0.00 -0.00    -0.303    16.739
ATOM     18  H   UNL d   1     -18.830  -6.219 -11.974 +0.00 +0.00    +0.222    16.739
ATOM     19  O   UNL d   1     -16.298  -5.427 -14.003 -0.00 -0.00    -0.303    16.739
ATOM     20  H   UNL d   1     -15.877  -4.701 -13.507 +0.00 +0.00    +0.222    16.739
ATOM     21  O   UNL d   1     -15.718  -7.271  -7.487 -0.17 -0.00    -0.278    16.739
ATOM     22  P   UNL d   1     -16.306  -8.746  -7.329 -0.20 +0.01    +0.473    16.739
ATOM     23  O   UNL d   1     -15.899  -9.777  -8.327 -0.31 -0.02    -0.228    16.739
ATOM     24  O   UNL d   1     -15.924  -9.088  -5.822 -0.24 -0.00    -0.303    16.739
ATOM     25  H   UNL d   1     -14.938  -9.045  -5.736 +0.02 +0.00    +0.222    16.739
ATOM     26  O   UNL d   1     -17.879  -8.459  -7.215 -0.05 -0.00    -0.303    16.739
ATOM     27  H   UNL d   1     -18.287  -8.546  -8.101 +0.04 +0.00    +0.222    16.739
ATOM     28  O   UNL d   1     -15.569  -3.771 -11.740 -0.00 -0.00    -0.278    16.739
ATOM     29  P   UNL d   1     -16.304  -2.453 -12.247 +0.00 +0.00    +0.473    16.739
ATOM     30  O   UNL d   1     -16.984  -1.654 -11.195 +0.00 -0.00    -0.228    16.739
ATOM     31  O   UNL d   1     -15.102  -1.746 -13.032 +0.00 -0.00    -0.303    16.739
ATOM     32  H   UNL d   1     -14.260  -1.940 -12.558 +0.00 +0.00    +0.222    16.739
ATOM     33  O   UNL d   1     -17.215  -3.011 -13.428 +0.00 -0.00    -0.303    16.739
ATOM     34  H   UNL d   1     -17.517  -3.923 -13.196 +0.00 +0.00    +0.222    16.739
ATOM     35  O   UNL d   1     -13.243  -6.051  -8.443 -0.27 -0.00    -0.278    16.739
ATOM     36  P   UNL d   1     -12.455  -6.680  -9.680 -0.24 -0.00    +0.473    16.739
ATOM     37  O   UNL d   1     -11.450  -7.733  -9.336 -0.35 +0.01    -0.228    16.739
ATOM     38  O   UNL d   1     -13.648  -7.190 -10.602 -0.15 -0.01    -0.303    16.739
ATOM     39  H   UNL d   1     -14.020  -6.429 -11.097 +0.05 +0.01    +0.222    16.739
ATOM     40  O   UNL d   1     -11.916  -5.386 -10.432 -0.15 +0.00    -0.303    16.739
ATOM     41  H   UNL d   1     -12.176  -4.560  -9.967 +0.07 +0.01    +0.222    16.739
ATOM     42  O   UNL d   1     -13.918  -3.388  -9.414 -0.02 -0.01    -0.278    16.739
ATOM     43  P   UNL d   1     -13.057  -2.537 -10.452 +0.00 +0.02    +0.473    16.739
ATOM     44  O   UNL d   1     -13.487  -1.135 -10.716 -0.00 -0.01    -0.228    16.739
ATOM     45  O   UNL d   1     -11.581  -2.667  -9.871 -0.07 -0.02    -0.303    16.739
ATOM     46  H   UNL d   1     -11.072  -3.360 -10.338 +0.05 +0.01    +0.222    16.739
ATOM     47  O   UNL d   1     -12.986  -3.492 -11.738 -0.01 -0.01    -0.303    16.739
ATOM     48  H   UNL d   1     -13.777  -3.342 -12.295 +0.01 +0.00    +0.222    16.739
TER
ENDMDL
MODEL       30
USER    Run = 30
USER    Cluster Rank = 88
USER    Number of conformations in this cluster = 1
USER  
USER    RMSD from reference structure       = 20.436 A
USER  
USER    Estimated Free Energy of Binding    =   +4.71 kcal/mol  [=(1)+(2)+(3)-(4)]
USER    
USER    (1) Final Intermolecular Energy     =   -2.45 kcal/mol
USER        vdW + Hbond + desolv Energy     =   -2.21 kcal/mol
USER        Electrostatic Energy            =   -0.25 kcal/mol
USER    (2) Final Total Internal Energy     =  -12.65 kcal/mol
USER    (3) Torsional Free Energy           =   +7.16 kcal/mol
USER    (4) Unbound System's Energy  [=(2)] =  -12.65 kcal/mol
USER    
USER    
USER  
USER    DPF = D:/Protein_go_brrr/autodock/final/mut_Y35F/IHP/dock.dpf
USER    NEWDPF move	IHP_ideal_opt.pdbqt
USER    NEWDPF about	0.035000 0.082000 -0.065000
USER    NEWDPF tran0	12.487775 15.943906 13.418279
USER    NEWDPF axisangle0	-0.096389 -0.985204 -0.141709 138.857502
USER    NEWDPF quaternion0	-0.090243 -0.922384 -0.132673 0.351372
USER    NEWDPF dihe0	-131.47 24.63 12.03 16.55 -39.59 -23.62 -70.46 -51.80 180.00 37.62 -152.88 178.69 -162.90 166.47 -94.13 -168.22 0.56 157.44 50.47 -7.47 117.50 -15.19 131.36 180.00 
USER  
USER                              x       y       z    vdW   Elec        q     RMS 
ATOM      1  C   UNL d   1      12.031  15.570  11.795 -0.10 +0.08    +0.194    20.436
ATOM      2  C   UNL d   1      12.644  14.417  12.591 -0.07 +0.09    +0.194    20.436
ATOM      3  C   UNL d   1      13.859  14.871  13.403 -0.01 +0.06    +0.194    20.436
ATOM      4  C   UNL d   1      13.576  16.090  14.277 -0.01 +0.06    +0.194    20.436
ATOM      5  C   UNL d   1      12.861  17.222  13.551 -0.03 +0.05    +0.194    20.436
ATOM      6  C   UNL d   1      11.684  16.760  12.690 -0.10 +0.08    +0.194    20.436
ATOM      7  O   UNL d   1      10.812  15.109  11.207 -0.12 -0.14    -0.278    20.436
ATOM      8  P   UNL d   1      10.899  14.082   9.987 -0.17 +0.13    +0.473    20.436
ATOM      9  O   UNL d   1      10.471  14.628   8.670 -0.27 -0.02    -0.228    20.436
ATOM     10  O   UNL d   1      12.418  13.593  10.000 -0.04 -0.06    -0.303    20.436
ATOM     11  H   UNL d   1      12.571  13.021  10.775 +0.04 +0.06    +0.222    20.436
ATOM     12  O   UNL d   1      10.128  12.784  10.483 -0.21 -0.13    -0.303    20.436
ATOM     13  H   UNL d   1      10.054  12.731  11.463 +0.06 +0.15    +0.222    20.436
ATOM     14  O   UNL d   1      11.659  13.898  13.494 -0.57 -0.33    -0.278    20.436
ATOM     15  P   UNL d   1      11.338  12.333  13.381 -0.09 +0.44    +0.473    20.436
ATOM     16  O   UNL d   1       9.899  11.934  13.470 -0.37 -0.33    -0.228    20.436
ATOM     17  O   UNL d   1      12.016  11.897  12.006 -0.05 -0.13    -0.303    20.436
ATOM     18  H   UNL d   1      11.427  12.084  11.249 +0.05 +0.09    +0.222    20.436
ATOM     19  O   UNL d   1      12.306  11.652  14.444 -0.02 -0.16    -0.303    20.436
ATOM     20  H   UNL d   1      13.203  12.033  14.411 +0.01 +0.09    +0.222    20.436
ATOM     21  O   UNL d   1      11.350  17.848  11.831 -0.06 -0.06    -0.278    20.436
ATOM     22  P   UNL d   1      12.375  19.056  11.647 +0.00 +0.04    +0.473    20.436
ATOM     23  O   UNL d   1      12.694  19.896  12.837 -0.01 -0.02    -0.228    20.436
ATOM     24  O   UNL d   1      13.628  18.323  10.993 -0.00 -0.02    -0.303    20.436
ATOM     25  H   UNL d   1      14.333  18.242  11.684 +0.01 +0.02    +0.222    20.436
ATOM     26  O   UNL d   1      11.748  19.827  10.389 -0.01 -0.00    -0.303    20.436
ATOM     27  H   UNL d   1      12.118  20.733  10.351 +0.01 -0.00    +0.222    20.436
ATOM     28  O   UNL d   1      14.184  13.824  14.308 -0.00 -0.08    -0.278    20.436
ATOM     29  P   UNL d   1      15.299  12.752  13.931 +0.01 +0.08    +0.473    20.436
ATOM     30  O   UNL d   1      15.790  11.914  15.055 +0.00 -0.03    -0.228    20.436
ATOM     31  O   UNL d   1      14.563  11.994  12.729 +0.00 -0.06    -0.303    20.436
ATOM     32  H   UNL d   1      13.597  12.182  12.784 +0.02 +0.06    +0.222    20.436
ATOM     33  O   UNL d   1      16.379  13.645  13.174 +0.00 -0.03    -0.303    20.436
ATOM     34  H   UNL d   1      16.123  14.596  13.255 +0.00 +0.03    +0.222    20.436
ATOM     35  O   UNL d   1      12.329  18.063  14.574 -0.01 -0.07    -0.278    20.436
ATOM     36  P   UNL d   1      10.802  17.925  15.015 -0.05 +0.21    +0.473    20.436
ATOM     37  O   UNL d   1      10.312  16.526  15.212 -0.02 -0.28    -0.228    20.436
ATOM     38  O   UNL d   1      10.760  18.825  16.328 -0.01 -0.07    -0.303    20.436
ATOM     39  H   UNL d   1      10.241  19.638  16.143 +0.01 +0.03    +0.222    20.436
ATOM     40  O   UNL d   1      10.052  18.805  13.923 -0.05 -0.08    -0.303    20.436
ATOM     41  H   UNL d   1      10.685  19.249  13.316 +0.03 +0.04    +0.222    20.436
ATOM     42  O   UNL d   1      14.845  16.598  14.704 +0.00 -0.04    -0.278    20.436
ATOM     43  P   UNL d   1      15.807  17.272  13.625 +0.00 +0.04    +0.473    20.436
ATOM     44  O   UNL d   1      17.264  17.308  13.932 +0.00 -0.01    -0.228    20.436
ATOM     45  O   UNL d   1      15.443  16.485  12.291 +0.00 -0.03    -0.303    20.436
ATOM     46  H   UNL d   1      15.323  17.095  11.536 +0.00 +0.02    +0.222    20.436
ATOM     47  O   UNL d   1      15.120  18.696  13.361 +0.00 -0.02    -0.303    20.436
ATOM     48  H   UNL d   1      14.296  18.759  13.886 +0.00 +0.02    +0.222    20.436
TER
ENDMDL
MODEL       12
USER    Run = 12
USER    Cluster Rank = 89
USER    Number of conformations in this cluster = 1
USER  
USER    RMSD from reference structure       = 21.972 A
USER  
USER    Estimated Free Energy of Binding    =   +4.71 kcal/mol  [=(1)+(2)+(3)-(4)]
USER    
USER    (1) Final Intermolecular Energy     =   -2.45 kcal/mol
USER        vdW + Hbond + desolv Energy     =   -2.38 kcal/mol
USER        Electrostatic Energy            =   -0.07 kcal/mol
USER    (2) Final Total Internal Energy     =  -15.09 kcal/mol
USER    (3) Torsional Free Energy           =   +7.16 kcal/mol
USER    (4) Unbound System's Energy  [=(2)] =  -15.09 kcal/mol
USER    
USER    
USER  
USER    DPF = D:/Protein_go_brrr/autodock/final/mut_Y35F/IHP/dock.dpf
USER    NEWDPF move	IHP_ideal_opt.pdbqt
USER    NEWDPF about	0.035000 0.082000 -0.065000
USER    NEWDPF tran0	21.589284 14.840051 -4.239390
USER    NEWDPF axisangle0	0.684229 -0.255032 -0.683220 -164.254927
USER    NEWDPF quaternion0	0.677780 -0.252628 -0.676781 -0.136970
USER    NEWDPF dihe0	85.68 78.88 167.14 8.74 -8.26 180.00 47.27 -77.53 108.06 -9.07 1.62 -161.19 180.00 82.86 -39.54 -125.05 124.42 -11.46 20.24 -28.68 -179.74 3.33 -7.61 179.80 
USER  
USER                              x       y       z    vdW   Elec        q     RMS 
ATOM      1  C   UNL d   1      20.894  15.044  -5.807 -0.01 -0.03    +0.194    21.972
ATOM      2  C   UNL d   1      21.438  16.316  -5.156 -0.00 -0.03    +0.194    21.972
ATOM      3  C   UNL d   1      21.062  16.400  -3.675 -0.01 -0.03    +0.194    21.972
ATOM      4  C   UNL d   1      21.431  15.145  -2.888 -0.02 -0.03    +0.194    21.972
ATOM      5  C   UNL d   1      21.007  13.845  -3.559 -0.06 -0.03    +0.194    21.972
ATOM      6  C   UNL d   1      21.329  13.786  -5.054 -0.03 -0.03    +0.194    21.972
ATOM      7  O   UNL d   1      21.429  14.955  -7.130 -0.00 +0.04    -0.278    21.972
ATOM      8  P   UNL d   1      20.491  15.359  -8.358 +0.00 -0.07    +0.473    21.972
ATOM      9  O   UNL d   1      20.404  14.347  -9.445 -0.00 +0.04    -0.228    21.972
ATOM     10  O   UNL d   1      19.082  15.675  -7.680 -0.00 +0.05    -0.303    21.972
ATOM     11  H   UNL d   1      18.667  14.843  -7.384 +0.03 -0.05    +0.222    21.972
ATOM     12  O   UNL d   1      20.982  16.806  -8.794 +0.00 +0.03    -0.303    21.972
ATOM     13  H   UNL d   1      21.949  16.937  -8.675 +0.00 -0.02    +0.222    21.972
ATOM     14  O   UNL d   1      22.867  16.321  -5.265 -0.00 +0.03    -0.278    21.972
ATOM     15  P   UNL d   1      23.496  17.272  -6.389 +0.00 -0.04    +0.473    21.972
ATOM     16  O   UNL d   1      24.720  18.044  -6.009 +0.00 +0.01    -0.228    21.972
ATOM     17  O   UNL d   1      23.741  16.299  -7.627 +0.00 +0.03    -0.303    21.972
ATOM     18  H   UNL d   1      22.896  16.037  -8.041 +0.00 -0.02    +0.222    21.972
ATOM     19  O   UNL d   1      22.269  18.142  -6.905 +0.00 +0.03    -0.303    21.972
ATOM     20  H   UNL d   1      21.506  17.583  -7.145 +0.00 -0.03    +0.222    21.972
ATOM     21  O   UNL d   1      20.584  12.696  -5.593 -0.08 +0.05    -0.278    21.972
ATOM     22  P   UNL d   1      19.025  12.871  -5.885 -0.08 -0.12    +0.473    21.972
ATOM     23  O   UNL d   1      18.348  14.103  -5.387 -0.10 +0.06    -0.228    21.972
ATOM     24  O   UNL d   1      18.965  12.668  -7.463 -0.05 +0.08    -0.303    21.972
ATOM     25  H   UNL d   1      19.326  13.485  -7.893 +0.05 -0.05    +0.222    21.972
ATOM     26  O   UNL d   1      18.436  11.479  -5.350 -0.16 +0.14    -0.303    21.972
ATOM     27  H   UNL d   1      19.153  10.970  -4.920 -0.27 -0.10    +0.222    21.972
ATOM     28  O   UNL d   1      21.830  17.448  -3.097 -0.00 +0.04    -0.278    21.972
ATOM     29  P   UNL d   1      21.116  18.763  -2.553 +0.01 -0.08    +0.473    21.972
ATOM     30  O   UNL d   1      21.933  20.003  -2.601 +0.00 +0.02    -0.228    21.972
ATOM     31  O   UNL d   1      19.780  18.740  -3.434 -0.00 +0.08    -0.303    21.972
ATOM     32  H   UNL d   1      19.052  18.359  -2.891 +0.02 -0.08    +0.222    21.972
ATOM     33  O   UNL d   1      20.600  18.296  -1.121 -0.00 +0.06    -0.303    21.972
ATOM     34  H   UNL d   1      20.587  17.308  -1.091 +0.02 -0.04    +0.222    21.972
ATOM     35  O   UNL d   1      21.767  12.817  -2.926 -0.05 +0.02    -0.278    21.972
ATOM     36  P   UNL d   1      21.029  11.592  -2.219 -0.13 -0.00    +0.473    21.972
ATOM     37  O   UNL d   1      21.912  10.451  -1.821 -0.18 -0.05    -0.228    21.972
ATOM     38  O   UNL d   1      20.297  12.310  -1.001 -0.20 +0.02    -0.303    21.972
ATOM     39  H   UNL d   1      19.965  13.185  -1.297 -0.02 -0.04    +0.222    21.972
ATOM     40  O   UNL d   1      19.851  11.271  -3.238 -0.05 +0.06    -0.303    21.972
ATOM     41  H   UNL d   1      19.340  12.078  -3.471 -0.46 -0.10    +0.222    21.972
ATOM     42  O   UNL d   1      20.737  15.220  -1.639 -0.03 +0.05    -0.278    21.972
ATOM     43  P   UNL d   1      19.148  15.077  -1.630 -0.12 -0.16    +0.473    21.972
ATOM     44  O   UNL d   1      18.535  14.159  -2.631 -0.18 +0.09    -0.228    21.972
ATOM     45  O   UNL d   1      18.841  14.689  -0.117 -0.17 +0.07    -0.303    21.972
ATOM     46  H   UNL d   1      19.129  13.776   0.084 +0.05 -0.02    +0.222    21.972
ATOM     47  O   UNL d   1      18.643  16.597  -1.685 -0.10 +0.18    -0.303    21.972
ATOM     48  H   UNL d   1      19.377  17.170  -1.991 +0.03 -0.08    +0.222    21.972
TER
ENDMDL
MODEL       62
USER    Run = 62
USER    Cluster Rank = 90
USER    Number of conformations in this cluster = 1
USER  
USER    RMSD from reference structure       = 17.081 A
USER  
USER    Estimated Free Energy of Binding    =   +4.82 kcal/mol  [=(1)+(2)+(3)-(4)]
USER    
USER    (1) Final Intermolecular Energy     =   -2.34 kcal/mol
USER        vdW + Hbond + desolv Energy     =   -1.97 kcal/mol
USER        Electrostatic Energy            =   -0.37 kcal/mol
USER    (2) Final Total Internal Energy     =  -13.86 kcal/mol
USER    (3) Torsional Free Energy           =   +7.16 kcal/mol
USER    (4) Unbound System's Energy  [=(2)] =  -13.86 kcal/mol
USER    
USER    
USER  
USER    DPF = D:/Protein_go_brrr/autodock/final/mut_Y35F/IHP/dock.dpf
USER    NEWDPF move	IHP_ideal_opt.pdbqt
USER    NEWDPF about	0.035000 0.082000 -0.065000
USER    NEWDPF tran0	-7.184758 18.860942 -2.521924
USER    NEWDPF axisangle0	0.857751 -0.356220 0.370636 121.401590
USER    NEWDPF quaternion0	0.748024 -0.310651 0.323223 0.489370
USER    NEWDPF dihe0	3.75 -168.39 153.30 -6.05 -25.19 -175.59 -91.42 9.71 60.98 75.80 166.37 120.48 -41.23 166.00 -39.93 169.54 112.42 -157.77 -34.97 5.01 2.19 3.89 -13.14 13.25 
USER  
USER                              x       y       z    vdW   Elec        q     RMS 
ATOM      1  C   UNL d   1      -5.681  18.594  -1.715 -0.02 -0.06    +0.194    17.081
ATOM      2  C   UNL d   1      -6.598  19.636  -1.074 -0.00 -0.04    +0.194    17.081
ATOM      3  C   UNL d   1      -7.232  20.555  -2.122 +0.00 -0.03    +0.194    17.081
ATOM      4  C   UNL d   1      -7.923  19.793  -3.250 +0.00 -0.03    +0.194    17.081
ATOM      5  C   UNL d   1      -7.086  18.667  -3.842 +0.00 -0.04    +0.194    17.081
ATOM      6  C   UNL d   1      -6.402  17.786  -2.795 -0.01 -0.06    +0.194    17.081
ATOM      7  O   UNL d   1      -5.270  17.676  -0.699 -0.05 +0.11    -0.278    17.081
ATOM      8  P   UNL d   1      -3.928  16.840  -0.929 -0.12 -0.38    +0.473    17.081
ATOM      9  O   UNL d   1      -3.101  17.280  -2.086 -0.15 +0.26    -0.228    17.081
ATOM     10  O   UNL d   1      -3.162  16.947   0.467 -0.15 +0.15    -0.303    17.081
ATOM     11  H   UNL d   1      -2.203  16.842   0.322 +0.09 -0.12    +0.222    17.081
ATOM     12  O   UNL d   1      -4.386  15.319  -0.941 -0.22 +0.34    -0.303    17.081
ATOM     13  H   UNL d   1      -3.852  14.760  -1.550 -0.44 -0.54    +0.222    17.081
ATOM     14  O   UNL d   1      -7.646  18.963  -0.364 -0.01 +0.05    -0.278    17.081
ATOM     15  P   UNL d   1      -8.010  19.536   1.086 -0.01 -0.08    +0.473    17.081
ATOM     16  O   UNL d   1      -8.271  18.527   2.161 -0.10 +0.05    -0.228    17.081
ATOM     17  O   UNL d   1      -6.799  20.510   1.434 -0.01 +0.06    -0.303    17.081
ATOM     18  H   UNL d   1      -6.700  21.205   0.755 +0.01 -0.03    +0.222    17.081
ATOM     19  O   UNL d   1      -9.187  20.572   0.819 -0.00 +0.04    -0.303    17.081
ATOM     20  H   UNL d   1      -8.882  21.337   0.295 +0.00 -0.03    +0.222    17.081
ATOM     21  O   UNL d   1      -5.411  17.024  -3.480 -0.04 +0.15    -0.278    17.081
ATOM     22  P   UNL d   1      -5.713  15.509  -3.880 -0.08 -0.30    +0.473    17.081
ATOM     23  O   UNL d   1      -6.941  14.866  -3.331 -0.06 +0.11    -0.228    17.081
ATOM     24  O   UNL d   1      -5.647  15.574  -5.469 -0.04 +0.15    -0.303    17.081
ATOM     25  H   UNL d   1      -6.560  15.757  -5.808 +0.03 -0.08    +0.222    17.081
ATOM     26  O   UNL d   1      -4.323  14.794  -3.520 -0.18 +0.43    -0.303    17.081
ATOM     27  H   UNL d   1      -3.761  15.419  -3.019 -0.44 -0.49    +0.222    17.081
ATOM     28  O   UNL d   1      -8.262  21.292  -1.477 +0.00 +0.03    -0.278    17.081
ATOM     29  P   UNL d   1      -8.140  22.872  -1.315 +0.00 -0.05    +0.473    17.081
ATOM     30  O   UNL d   1      -9.411  23.630  -1.448 +0.00 +0.02    -0.228    17.081
ATOM     31  O   UNL d   1      -7.391  22.950   0.097 +0.00 +0.03    -0.303    17.081
ATOM     32  H   UNL d   1      -7.769  22.261   0.691 +0.00 -0.03    +0.222    17.081
ATOM     33  O   UNL d   1      -6.981  23.225  -2.348 +0.00 +0.03    -0.303    17.081
ATOM     34  H   UNL d   1      -7.314  23.080  -3.267 +0.00 -0.02    +0.222    17.081
ATOM     35  O   UNL d   1      -8.001  17.838  -4.555 +0.00 +0.05    -0.278    17.081
ATOM     36  P   UNL d   1      -7.858  17.652  -6.133 +0.01 -0.08    +0.473    17.081
ATOM     37  O   UNL d   1      -8.469  16.408  -6.695 -0.00 +0.04    -0.228    17.081
ATOM     38  O   UNL d   1      -8.502  19.002  -6.680 +0.00 +0.03    -0.303    17.081
ATOM     39  H   UNL d   1      -8.925  19.481  -5.935 +0.00 -0.02    +0.222    17.081
ATOM     40  O   UNL d   1      -6.297  17.855  -6.359 +0.00 +0.07    -0.303    17.081
ATOM     41  H   UNL d   1      -5.771  17.509  -5.603 +0.02 -0.07    +0.222    17.081
ATOM     42  O   UNL d   1      -8.164  20.736  -4.300 +0.00 +0.03    -0.278    17.081
ATOM     43  P   UNL d   1      -9.606  21.406  -4.418 +0.00 -0.04    +0.473    17.081
ATOM     44  O   UNL d   1     -10.438  21.042  -5.599 +0.00 +0.02    -0.228    17.081
ATOM     45  O   UNL d   1     -10.273  21.050  -3.018 +0.00 +0.03    -0.303    17.081
ATOM     46  H   UNL d   1     -10.137  21.766  -2.365 +0.00 -0.02    +0.222    17.081
ATOM     47  O   UNL d   1      -9.298  22.970  -4.245 +0.00 +0.02    -0.303    17.081
ATOM     48  H   UNL d   1      -8.891  23.123  -3.367 +0.00 -0.02    +0.222    17.081
TER
ENDMDL
MODEL       40
USER    Run = 40
USER    Cluster Rank = 91
USER    Number of conformations in this cluster = 1
USER  
USER    RMSD from reference structure       = 16.576 A
USER  
USER    Estimated Free Energy of Binding    =   +4.89 kcal/mol  [=(1)+(2)+(3)-(4)]
USER    
USER    (1) Final Intermolecular Energy     =   -2.27 kcal/mol
USER        vdW + Hbond + desolv Energy     =   -2.29 kcal/mol
USER        Electrostatic Energy            =   +0.02 kcal/mol
USER    (2) Final Total Internal Energy     =  -14.96 kcal/mol
USER    (3) Torsional Free Energy           =   +7.16 kcal/mol
USER    (4) Unbound System's Energy  [=(2)] =  -14.96 kcal/mol
USER    
USER    
USER  
USER    DPF = D:/Protein_go_brrr/autodock/final/mut_Y35F/IHP/dock.dpf
USER    NEWDPF move	IHP_ideal_opt.pdbqt
USER    NEWDPF about	0.035000 0.082000 -0.065000
USER    NEWDPF tran0	-7.727972 -14.788437 11.370334
USER    NEWDPF axisangle0	0.500439 -0.743022 0.444386 -65.119891
USER    NEWDPF quaternion0	0.269327 -0.399881 0.239160 -0.842829
USER    NEWDPF dihe0	54.08 65.07 66.29 154.91 62.67 -155.04 -7.43 166.87 15.14 6.49 123.71 175.49 -85.04 83.62 67.37 135.37 -180.00 66.67 -137.55 -19.14 29.34 -35.84 -176.53 23.47 
USER  
USER                              x       y       z    vdW   Elec        q     RMS 
ATOM      1  C   UNL d   1      -6.901 -15.721  12.566 -0.01 +0.00    +0.194    16.576
ATOM      2  C   UNL d   1      -6.909 -16.313  11.156 -0.04 +0.00    +0.194    16.576
ATOM      3  C   UNL d   1      -8.284 -16.188  10.496 -0.06 +0.00    +0.194    16.576
ATOM      4  C   UNL d   1      -8.839 -14.766  10.529 -0.10 +0.01    +0.194    16.576
ATOM      5  C   UNL d   1      -8.746 -14.094  11.893 -0.05 +0.02    +0.194    16.576
ATOM      6  C   UNL d   1      -7.390 -14.272  12.580 -0.02 +0.01    +0.194    16.576
ATOM      7  O   UNL d   1      -5.553 -15.720  13.042 -0.01 +0.00    -0.278    16.576
ATOM      8  P   UNL d   1      -4.724 -14.356  12.972 -0.01 -0.01    +0.473    16.576
ATOM      9  O   UNL d   1      -5.048 -13.480  11.813 -0.04 +0.00    -0.228    16.576
ATOM     10  O   UNL d   1      -5.002 -13.662  14.381 -0.00 +0.01    -0.303    16.576
ATOM     11  H   UNL d   1      -5.644 -12.936  14.267 +0.02 -0.00    +0.222    16.576
ATOM     12  O   UNL d   1      -3.202 -14.791  13.110 -0.00 +0.01    -0.303    16.576
ATOM     13  H   UNL d   1      -3.051 -15.739  12.896 +0.00 -0.01    +0.222    16.576
ATOM     14  O   UNL d   1      -5.951 -15.614  10.351 -0.05 -0.00    -0.278    16.576
ATOM     15  P   UNL d   1      -4.667 -16.447   9.880 -0.00 -0.00    +0.473    16.576
ATOM     16  O   UNL d   1      -4.205 -16.231   8.473 -0.08 +0.00    -0.228    16.576
ATOM     17  O   UNL d   1      -3.553 -16.084  10.959 -0.02 +0.01    -0.303    16.576
ATOM     18  H   UNL d   1      -3.691 -15.188  11.320 +0.02 -0.01    +0.222    16.576
ATOM     19  O   UNL d   1      -5.008 -17.952  10.266 -0.02 +0.00    -0.303    16.576
ATOM     20  H   UNL d   1      -5.390 -18.440   9.513 +0.03 -0.00    +0.222    16.576
ATOM     21  O   UNL d   1      -7.568 -13.904  13.945 -0.00 -0.01    -0.278    16.576
ATOM     22  P   UNL d   1      -7.742 -12.366  14.334 +0.00 +0.04    +0.473    16.576
ATOM     23  O   UNL d   1      -9.124 -11.842  14.534 -0.02 -0.05    -0.228    16.576
ATOM     24  O   UNL d   1      -6.791 -12.242  15.605 -0.00 -0.00    -0.303    16.576
ATOM     25  H   UNL d   1      -6.428 -13.142  15.807 +0.01 -0.00    +0.222    16.576
ATOM     26  O   UNL d   1      -6.873 -11.643  13.198 -0.04 -0.02    -0.303    16.576
ATOM     27  H   UNL d   1      -6.905 -12.178  12.379 +0.05 +0.02    +0.222    16.576
ATOM     28  O   UNL d   1      -8.128 -16.500   9.118 -0.10 -0.00    -0.278    16.576
ATOM     29  P   UNL d   1      -7.929 -18.010   8.653 -0.04 -0.01    +0.473    16.576
ATOM     30  O   UNL d   1      -9.078 -18.614   7.929 -0.07 +0.01    -0.228    16.576
ATOM     31  O   UNL d   1      -6.553 -17.876   7.847 -0.09 +0.00    -0.303    16.576
ATOM     32  H   UNL d   1      -5.934 -17.319   8.374 +0.05 +0.00    +0.222    16.576
ATOM     33  O   UNL d   1      -7.478 -18.719  10.005 -0.01 +0.00    -0.303    16.576
ATOM     34  H   UNL d   1      -6.700 -19.301   9.818 +0.02 -0.00    +0.222    16.576
ATOM     35  O   UNL d   1      -8.914 -12.699  11.650 -0.09 -0.08    -0.278    16.576
ATOM     36  P   UNL d   1      -8.122 -11.989  10.461 -0.12 +0.07    +0.473    16.576
ATOM     37  O   UNL d   1      -7.499 -10.672  10.797 -0.22 -0.03    -0.228    16.576
ATOM     38  O   UNL d   1      -7.080 -13.118  10.042 +0.05 +0.02    -0.303    16.576
ATOM     39  H   UNL d   1      -6.567 -13.390  10.833 +0.05 +0.00    +0.222    16.576
ATOM     40  O   UNL d   1      -9.193 -12.001   9.285 -0.16 -0.05    -0.303    16.576
ATOM     41  H   UNL d   1      -9.747 -12.813   9.306 +0.04 +0.04    +0.222    16.576
ATOM     42  O   UNL d   1     -10.229 -14.856  10.198 -0.08 -0.03    -0.278    16.576
ATOM     43  P   UNL d   1     -10.661 -14.809   8.663 -0.22 +0.03    +0.473    16.576
ATOM     44  O   UNL d   1     -11.236 -16.050   8.073 -0.20 -0.00    -0.228    16.576
ATOM     45  O   UNL d   1     -11.636 -13.552   8.614 -0.29 -0.06    -0.303    16.576
ATOM     46  H   UNL d   1     -11.227 -12.765   9.026 +0.12 +0.09    +0.222    16.576
ATOM     47  O   UNL d   1      -9.354 -14.237   7.932 -0.21 +0.03    -0.303    16.576
ATOM     48  H   UNL d   1      -8.689 -13.989   8.608 -0.27 -0.04    +0.222    16.576
TER
ENDMDL
MODEL       26
USER    Run = 26
USER    Cluster Rank = 92
USER    Number of conformations in this cluster = 1
USER  
USER    RMSD from reference structure       = 19.294 A
USER  
USER    Estimated Free Energy of Binding    =   +4.93 kcal/mol  [=(1)+(2)+(3)-(4)]
USER    
USER    (1) Final Intermolecular Energy     =   -2.23 kcal/mol
USER        vdW + Hbond + desolv Energy     =   -2.07 kcal/mol
USER        Electrostatic Energy            =   -0.16 kcal/mol
USER    (2) Final Total Internal Energy     =  -14.96 kcal/mol
USER    (3) Torsional Free Energy           =   +7.16 kcal/mol
USER    (4) Unbound System's Energy  [=(2)] =  -14.96 kcal/mol
USER    
USER    
USER  
USER    DPF = D:/Protein_go_brrr/autodock/final/mut_Y35F/IHP/dock.dpf
USER    NEWDPF move	IHP_ideal_opt.pdbqt
USER    NEWDPF about	0.035000 0.082000 -0.065000
USER    NEWDPF tran0	9.156804 10.117116 16.827947
USER    NEWDPF axisangle0	-0.705214 0.514971 -0.487317 -160.410273
USER    NEWDPF quaternion0	-0.694934 0.507464 -0.480213 -0.170121
USER    NEWDPF dihe0	124.44 120.75 143.44 35.60 126.78 141.63 -11.89 176.44 81.86 13.49 -14.04 -116.49 143.16 86.39 40.86 128.55 156.53 -27.57 36.08 -14.33 163.42 -28.10 -11.84 157.94 
USER  
USER                              x       y       z    vdW   Elec        q     RMS 
ATOM      1  C   UNL d   1      10.332   9.209  17.710 +0.00 +0.04    +0.194    19.294
ATOM      2  C   UNL d   1      10.428  10.729  17.852 -0.01 +0.07    +0.194    19.294
ATOM      3  C   UNL d   1      10.246  11.437  16.508 -0.06 +0.15    +0.194    19.294
ATOM      4  C   UNL d   1       8.983  11.005  15.767 -0.09 +0.18    +0.194    19.294
ATOM      5  C   UNL d   1       8.787   9.496  15.702 -0.06 +0.08    +0.194    19.294
ATOM      6  C   UNL d   1       9.030   8.781  17.033 -0.01 +0.04    +0.194    19.294
ATOM      7  O   UNL d   1      10.339   8.638  19.021 +0.00 -0.03    -0.278    19.294
ATOM      8  P   UNL d   1      11.748   8.329  19.707 +0.00 +0.04    +0.473    19.294
ATOM      9  O   UNL d   1      11.689   7.436  20.896 +0.00 -0.01    -0.228    19.294
ATOM     10  O   UNL d   1      12.635   7.738  18.520 +0.00 -0.03    -0.303    19.294
ATOM     11  H   UNL d   1      12.068   7.231  17.909 +0.00 +0.03    +0.222    19.294
ATOM     12  O   UNL d   1      12.414   9.753  19.942 +0.00 -0.03    -0.303    19.294
ATOM     13  H   UNL d   1      12.019  10.243  20.698 +0.00 +0.02    +0.222    19.294
ATOM     14  O   UNL d   1       9.405  11.180  18.748 -0.00 -0.08    -0.278    19.294
ATOM     15  P   UNL d   1       9.895  11.882  20.101 +0.01 +0.08    +0.473    19.294
ATOM     16  O   UNL d   1       9.093  13.050  20.582 +0.00 -0.04    -0.228    19.294
ATOM     17  O   UNL d   1       9.947  10.691  21.158 +0.00 -0.03    -0.303    19.294
ATOM     18  H   UNL d   1      10.410   9.914  20.790 +0.00 +0.02    +0.222    19.294
ATOM     19  O   UNL d   1      11.443  12.164  19.863 +0.00 -0.05    -0.303    19.294
ATOM     20  H   UNL d   1      11.821  11.561  19.197 +0.00 +0.04    +0.222    19.294
ATOM     21  O   UNL d   1       9.149   7.391  16.739 -0.01 -0.05    -0.278    19.294
ATOM     22  P   UNL d   1      10.316   6.882  15.779 +0.01 +0.10    +0.473    19.294
ATOM     23  O   UNL d   1      11.716   6.915  16.292 +0.00 -0.04    -0.228    19.294
ATOM     24  O   UNL d   1       9.791   5.437  15.365 -0.00 -0.07    -0.303    19.294
ATOM     25  H   UNL d   1       8.923   5.547  14.898 +0.03 +0.06    +0.222    19.294
ATOM     26  O   UNL d   1      10.035   7.730  14.447 -0.01 -0.09    -0.303    19.294
ATOM     27  H   UNL d   1       9.072   7.878  14.358 +0.04 +0.07    +0.222    19.294
ATOM     28  O   UNL d   1      10.073  12.823  16.773 +0.00 -0.39    -0.278    19.294
ATOM     29  P   UNL d   1      11.338  13.760  17.013 -0.03 +0.41    +0.473    19.294
ATOM     30  O   UNL d   1      11.726  14.619  15.864 -0.21 -0.25    -0.228    19.294
ATOM     31  O   UNL d   1      10.883  14.504  18.355 -0.02 -0.16    -0.303    19.294
ATOM     32  H   UNL d   1      10.436  13.850  18.940 +0.01 +0.09    +0.222    19.294
ATOM     33  O   UNL d   1      12.427  12.724  17.537 -0.00 -0.11    -0.303    19.294
ATOM     34  H   UNL d   1      12.769  13.032  18.411 +0.01 +0.06    +0.222    19.294
ATOM     35  O   UNL d   1       7.416   9.297  15.363 -0.08 -0.08    -0.278    19.294
ATOM     36  P   UNL d   1       7.022   8.543  14.014 -0.13 +0.12    +0.473    19.294
ATOM     37  O   UNL d   1       5.638   8.804  13.510 -0.34 -0.03    -0.228    19.294
ATOM     38  O   UNL d   1       8.178   9.016  13.026 -0.10 -0.11    -0.303    19.294
ATOM     39  H   UNL d   1       8.884   9.457  13.546 +0.05 +0.10    +0.222    19.294
ATOM     40  O   UNL d   1       7.396   7.033  14.347 -0.08 -0.07    -0.303    19.294
ATOM     41  H   UNL d   1       8.125   6.975  15.004 +0.04 +0.05    +0.222    19.294
ATOM     42  O   UNL d   1       9.111  11.472  14.420 -0.64 -0.44    -0.278    19.294
ATOM     43  P   UNL d   1      10.484  11.225  13.646 -0.10 +0.40    +0.473    19.294
ATOM     44  O   UNL d   1      11.400  10.182  14.188 -0.03 -0.10    -0.228    19.294
ATOM     45  O   UNL d   1      10.000  10.954  12.155 -0.09 -0.17    -0.303    19.294
ATOM     46  H   UNL d   1       9.789  10.010  12.012 +0.05 +0.10    +0.222    19.294
ATOM     47  O   UNL d   1      11.106  12.697  13.525 -0.26 -0.38    -0.303    19.294
ATOM     48  H   UNL d   1      11.278  13.050  14.423 +0.01 +0.36    +0.222    19.294
TER
ENDMDL


AVSFLD: # AVS field file
AVSFLD: #
AVSFLD: # Created by AutoDock
AVSFLD: #
AVSFLD: ndim=2           # number of dimensions in the field
AVSFLD: nspace=1         # number of physical coordinates
AVSFLD: veclen=7         # vector size
AVSFLD: dim1=48          # atoms
AVSFLD: dim2=92          # conformations
AVSFLD: data=Real       # data type (byte,integer,Real,double)
AVSFLD: field=uniform    # field coordinate layout
AVSFLD: label= x y z vdW Elec q RMS
AVSFLD: variable 1 file = D:/Protein_go_brrr/autodock/final/mut_Y35F/IHP/dock.dlg.pdb filetype = ascii offset = 5 stride = 12
AVSFLD: variable 2 file = D:/Protein_go_brrr/autodock/final/mut_Y35F/IHP/dock.dlg.pdb filetype = ascii offset = 6 stride = 12
AVSFLD: variable 3 file = D:/Protein_go_brrr/autodock/final/mut_Y35F/IHP/dock.dlg.pdb filetype = ascii offset = 7 stride = 12
AVSFLD: variable 4 file = D:/Protein_go_brrr/autodock/final/mut_Y35F/IHP/dock.dlg.pdb filetype = ascii offset = 8 stride = 12
AVSFLD: variable 5 file = D:/Protein_go_brrr/autodock/final/mut_Y35F/IHP/dock.dlg.pdb filetype = ascii offset = 9 stride = 12
AVSFLD: variable 6 file = D:/Protein_go_brrr/autodock/final/mut_Y35F/IHP/dock.dlg.pdb filetype = ascii offset = 10 stride = 12
AVSFLD: variable 7 file = D:/Protein_go_brrr/autodock/final/mut_Y35F/IHP/dock.dlg.pdb filetype = ascii offset = 11 stride = 12
AVSFLD: # end of file

>>> Closing the docking parameter file (DPF)...
This docking finished at:			6:25 38" a.m., 10/07/2025


________________________________________________________________________________

D:/autodockScripts/autodock4.exe: Successful Completion on "ACER"

Real= 11h 55m 44.17s,  CPU= 4m 42.92s,  System= 1m 15.30s
________________________________________________________________________________

