          AutoDock 4.2 Release 4.2.6   
         (C) 1989-2012 The Scripps Research Institute
        AutoDock comes with ABSOLUTELY NO WARRANTY.
        AutoDock is free software, and you are welcome
        to redistribute it under certain conditions;
        for details type 'autodock4 -C'

                     main.cc  $Revision: 1.213 $

                   Compiled on Jul 18 2014 at 15:34:58


This file was created at:			1:33 15" a.m., 09/26/2025
                   on host:		"ACER"
Current Working Directory = "D:\Protein_go_brrr\autodock\final\1A3N\heme_Fe"

      ________________________________________________________________

                   SETTING UP DEFAULT PARAMETER LIBRARY
      ________________________________________________________________


Random number generator was seeded with values 60812, 1758843195.
Docking parameter file (DPF) used for this docking:		D:/Protein_go_brrr/autodock/final/1A3N/heme_Fe/dock.dpf
DPF> autodock_parameter_version 4.2       # used by autodock to validate parameter set

	Autodock parameter version 4.2.
DPF> outlev 1                             # diagnostic output level

Output Level = 1  ADT-COMPATIBLE OUTPUT DURING DOCKING.
DPF> intelec                              # calculate internal electrostatics

Electrostatic energies will be calculated for all non-bonds between moving atoms.
DPF> seed pid time                        # seeds for random generator

Random number generator was seeded with values 60812, 1758843195.
DPF> ligand_types A C OA N Fe HD          # atoms types in ligand

DPF> fld opt_1A3N_fin.maps.fld            # grid_data_file

Opening Grid Map Dimensions file:		opt_1A3N_fin.maps.fld
Grid Point Spacing =				0.547 Angstroms

Even Number of User-specified Grid Points =	126 x-points
						126 y-points
						126 z-points

Coordinates of Central Grid Point of Maps =	(14.481, 2.083, 13.105)
Macromolecule file used to create Grid Maps =	opt_1A3N_fin.pdbqt
Grid Parameter file used to create Grid Maps =	D:/Protein_go_brrr/autodock/final/1A3N/heme_Fe/drid.gpf
Minimum coordinates in grid = (-19.980, -32.378, -21.356)
Maximum coordinates in grid = (48.942, 36.544, 47.566)

DPF> map opt_1A3N_fin.A.map               # atom-specific affinity map

DPF> map opt_1A3N_fin.C.map               # atom-specific affinity map

DPF> map opt_1A3N_fin.OA.map              # atom-specific affinity map

DPF> map opt_1A3N_fin.N.map               # atom-specific affinity map

DPF> map opt_1A3N_fin.Fe.map              # atom-specific affinity map

DPF> map opt_1A3N_fin.HD.map              # atom-specific affinity map

DPF> elecmap opt_1A3N_fin.e.map           # electrostatics map

DPF> desolvmap opt_1A3N_fin.d.map         # desolvation map

DPF> move heme_Fe_opt.pdbqt               # small molecule

1,4-interactions will be _ignored_ in the non-bonded internal energy calculation.

Ligand PDBQT file = "heme_Fe_opt.pdbqt"

INPUT LIGAND PDBQT FILE:
________________________

INPUT-LIGAND-PDBQT: REMARK  10 active torsions:
INPUT-LIGAND-PDBQT: REMARK  status: ('A' for Active; 'I' for Inactive)
INPUT-LIGAND-PDBQT: REMARK    1  A    between atoms: C_6  and  C_10 
INPUT-LIGAND-PDBQT: REMARK    2  A    between atoms: C_10  and  C_11 
INPUT-LIGAND-PDBQT: REMARK    3  A    between atoms: C_11  and  C_12 
INPUT-LIGAND-PDBQT: REMARK    4  A    between atoms: C_12  and  O_14 
INPUT-LIGAND-PDBQT: REMARK    5  A    between atoms: C_17  and  C_20 
INPUT-LIGAND-PDBQT: REMARK    6  A    between atoms: C_24  and  C_27 
INPUT-LIGAND-PDBQT: REMARK    7  A    between atoms: C_31  and  C_34 
INPUT-LIGAND-PDBQT: REMARK    8  A    between atoms: C_34  and  C_35 
INPUT-LIGAND-PDBQT: REMARK    9  A    between atoms: C_35  and  C_36 
INPUT-LIGAND-PDBQT: REMARK   10  A    between atoms: C_36  and  O_38 
INPUT-LIGAND-PDBQT: ROOT
INPUT-LIGAND-PDBQT: ATOM      1  C   UNL d   1      -2.155  -0.060   0.485  0.00  0.00     0.064 C 
INPUT-LIGAND-PDBQT: ATOM      2  C   UNL d   1       1.497  -3.385   0.291  0.00  0.00     0.064 A 
INPUT-LIGAND-PDBQT: ATOM      3  C   UNL d   1       4.660   0.212  -0.062  0.00  0.00     0.064 C 
INPUT-LIGAND-PDBQT: ATOM      4  C   UNL d   1       1.133   3.443   0.018  0.00  0.00     0.064 C 
INPUT-LIGAND-PDBQT: ATOM      5  C   UNL d   1      -1.427  -1.332   0.379  0.00  0.00     0.066 A 
INPUT-LIGAND-PDBQT: ATOM      6  C   UNL d   1      -2.022  -2.582   0.331  0.00  0.00    -0.021 A 
INPUT-LIGAND-PDBQT: ATOM      7  C   UNL d   1      -1.007  -3.505   0.281  0.00  0.00    -0.025 A 
INPUT-LIGAND-PDBQT: ATOM      8  C   UNL d   1       0.170  -2.782   0.300  0.00  0.00     0.066 A 
INPUT-LIGAND-PDBQT: ATOM      9  C   UNL d   1      -1.169  -4.992   0.200  0.00  0.00     0.051 C 
INPUT-LIGAND-PDBQT: ATOM     10  C   UNL d   1       2.647  -2.710   0.251  0.00  0.00     0.066 A 
INPUT-LIGAND-PDBQT: ATOM     11  C   UNL d   1       3.903  -3.312   0.359  0.00  0.00    -0.021 A 
INPUT-LIGAND-PDBQT: ATOM     12  C   UNL d   1       4.832  -2.294   0.277  0.00  0.00     0.000 A 
INPUT-LIGAND-PDBQT: ATOM     13  C   UNL d   1       4.087  -1.111   0.130  0.00  0.00     0.070 A 
INPUT-LIGAND-PDBQT: ATOM     14  C   UNL d   1       4.202  -4.778   0.598  0.00  0.00     0.052 C 
INPUT-LIGAND-PDBQT: ATOM     15  C   UNL d   1       3.948   1.360  -0.152  0.00  0.00     0.066 A 
INPUT-LIGAND-PDBQT: ATOM     16  C   UNL d   1       4.526   2.591  -0.435  0.00  0.00    -0.021 A 
INPUT-LIGAND-PDBQT: ATOM     17  C   UNL d   1       3.511   3.525  -0.409  0.00  0.00     0.000 A 
INPUT-LIGAND-PDBQT: ATOM     18  C   UNL d   1       2.336   2.841  -0.106  0.00  0.00     0.070 A 
INPUT-LIGAND-PDBQT: ATOM     19  C   UNL d   1       5.979   2.885  -0.695  0.00  0.00     0.052 C 
INPUT-LIGAND-PDBQT: ATOM     20  C   UNL d   1      -0.134   2.748   0.275  0.00  0.00     0.066 A 
INPUT-LIGAND-PDBQT: ATOM     21  C   UNL d   1      -1.347   3.370   0.603  0.00  0.00    -0.025 A 
INPUT-LIGAND-PDBQT: ATOM     22  C   UNL d   1      -2.273   2.354   0.719  0.00  0.00    -0.021 A 
INPUT-LIGAND-PDBQT: ATOM     23  C   UNL d   1      -1.591   1.158   0.465  0.00  0.00     0.066 A 
INPUT-LIGAND-PDBQT: ATOM     24  C   UNL d   1      -1.629   4.841   0.803  0.00  0.00     0.051 C 
INPUT-LIGAND-PDBQT: ATOM     25  N   UNL d   1      -0.089  -1.460   0.350  0.00  0.00    -0.248 N 
INPUT-LIGAND-PDBQT: ATOM     26  N   UNL d   1       2.755  -1.363   0.123  0.00  0.00    -0.248 N 
INPUT-LIGAND-PDBQT: ATOM     27  N   UNL d   1       2.596   1.504   0.009  0.00  0.00    -0.248 N 
INPUT-LIGAND-PDBQT: ATOM     28  N   UNL d   1      -0.277   1.401   0.239  0.00  0.00    -0.248 N 
INPUT-LIGAND-PDBQT: ATOM     29 FE   UNL d   1       1.239   0.021   0.181  0.00  0.00     0.000 Fe
INPUT-LIGAND-PDBQT: ENDROOT
INPUT-LIGAND-PDBQT: BRANCH   6  30
INPUT-LIGAND-PDBQT: ATOM     30  C   UNL d   1      -3.481  -2.886   0.312  0.00  0.00     0.052 C 
INPUT-LIGAND-PDBQT: BRANCH  30  31
INPUT-LIGAND-PDBQT: ATOM     31  C   UNL d   1      -4.006  -2.926  -1.119  0.00  0.00     0.115 C 
INPUT-LIGAND-PDBQT: BRANCH  31  32
INPUT-LIGAND-PDBQT: ATOM     32  C   UNL d   1      -5.478  -3.232  -1.131  0.00  0.00     0.139 C 
INPUT-LIGAND-PDBQT: ATOM     33  O   UNL d   1      -6.086  -3.411  -0.085  0.00  0.00    -0.650 OA
INPUT-LIGAND-PDBQT: BRANCH  32  34
INPUT-LIGAND-PDBQT: ATOM     34  O   UNL d   1      -6.141  -3.312  -2.297  0.00  0.00    -0.776 OA
INPUT-LIGAND-PDBQT: ATOM     35  H   UNL d   1      -7.088  -3.510  -2.286  0.00  0.00     0.167 HD
INPUT-LIGAND-PDBQT: ENDBRANCH  32  34
INPUT-LIGAND-PDBQT: ENDBRANCH  31  32
INPUT-LIGAND-PDBQT: ENDBRANCH  30  31
INPUT-LIGAND-PDBQT: ENDBRANCH   6  30
INPUT-LIGAND-PDBQT: BRANCH  22  36
INPUT-LIGAND-PDBQT: ATOM     36  C   UNL d   1      -3.720   2.522   1.101  0.00  0.00     0.052 C 
INPUT-LIGAND-PDBQT: BRANCH  36  37
INPUT-LIGAND-PDBQT: ATOM     37  C   UNL d   1      -4.581   2.559  -0.153  0.00  0.00     0.115 C 
INPUT-LIGAND-PDBQT: BRANCH  37  38
INPUT-LIGAND-PDBQT: ATOM     38  C   UNL d   1      -6.035   2.706   0.196  0.00  0.00     0.139 C 
INPUT-LIGAND-PDBQT: ATOM     39  O   UNL d   1      -6.394   2.778   1.362  0.00  0.00    -0.650 OA
INPUT-LIGAND-PDBQT: BRANCH  38  40
INPUT-LIGAND-PDBQT: ATOM     40  O   UNL d   1      -6.958   2.756  -0.781  0.00  0.00    -0.776 OA
INPUT-LIGAND-PDBQT: ATOM     41  H   UNL d   1      -7.891   2.847  -0.542  0.00  0.00     0.167 HD
INPUT-LIGAND-PDBQT: ENDBRANCH  38  40
INPUT-LIGAND-PDBQT: ENDBRANCH  37  38
INPUT-LIGAND-PDBQT: ENDBRANCH  36  37
INPUT-LIGAND-PDBQT: ENDBRANCH  22  36
INPUT-LIGAND-PDBQT: BRANCH  12  42
INPUT-LIGAND-PDBQT: ATOM     42  C   UNL d   1       6.314  -2.479   0.357  0.00  0.00     0.004 C 
INPUT-LIGAND-PDBQT: ATOM     43  C   UNL d   1       6.931  -3.422  -0.367  0.00  0.00     0.012 C 
INPUT-LIGAND-PDBQT: ENDBRANCH  12  42
INPUT-LIGAND-PDBQT: BRANCH  17  44
INPUT-LIGAND-PDBQT: ATOM     44  C   UNL d   1       3.653   4.974  -0.677  0.00  0.00     0.004 C 
INPUT-LIGAND-PDBQT: ATOM     45  C   UNL d   1       4.222   5.409  -1.806  0.00  0.00     0.012 C 
INPUT-LIGAND-PDBQT: ENDBRANCH  17  44
INPUT-LIGAND-PDBQT: TORSDOF 10
________________________________________________________________________________

Total charge on ligand                               =	-2.002 e
REMARK  10 active torsions:
REMARK  status: ('A' for Active; 'I' for Inactive)
REMARK    1  A    between atoms: C_6  and  C_10 
REMARK    2  A    between atoms: C_10  and  C_11 
REMARK    3  A    between atoms: C_11  and  C_12 
REMARK    4  A    between atoms: C_12  and  O_14 
REMARK    5  A    between atoms: C_17  and  C_20 
REMARK    6  A    between atoms: C_24  and  C_27 
REMARK    7  A    between atoms: C_31  and  C_34 
REMARK    8  A    between atoms: C_34  and  C_35 
REMARK    9  A    between atoms: C_35  and  C_36 
REMARK   10  A    between atoms: C_36  and  O_38 


Number of Rotatable Bonds in Small Molecule =	10 torsions
Number of atoms in ligand:  45

Number of non-hydrogen atoms in ligand:  43

Number of vibrational degrees of freedom of ligand:  129


Number of torsional degrees of freedom = 10
Estimated loss of torsional free energy upon binding = +2.9830 kcal/mol


DPF> about -0.174 -0.001 -0.047            # small molecule center

Small molecule center of rotation =	(-0.174, -0.001, -0.047)

DPF> tran0 random                         # initial coordinates/A or random

Initial translation =			(4.581, 21.569, 2.373) Angstroms
DPF> quaternion0 random                   # initial orientation

Each run will begin with a new, random initial orientation.
Initial quaternion,  (x,y,z,w) =	( -0.369, 0.570, -0.209, 0.704 ),
DPF> dihe0 random                         # initial dihedrals (relative) or random

DPF> torsdof 10                            # torsional degrees of freedom

Number of torsional degrees of freedom = 10
Free energy coefficient for torsional degrees of freedom = 0.2983, the factory default value.

Estimated loss of torsional free energy upon binding = +2.9830 kcal/mol

DPF> rmstol 2.0                           # cluster_tolerance/A

Maximum RMS tolerance for conformational cluster analysis = 2.00 Angstroms
DPF> extnrg 1000.0                        # external grid energy

External grid energy (beyond grid map walls) = 1000.00

DPF> e0max 0.0 10000                      # max initial energy; max number of retries

Using user-specified maximum number of retries for simanneal initialization, 10000 retries.
If the simanneal initial energy is greater than e0max, 0.000,
then a new, random initial state will be created.

DPF> ga_pop_size 150                      # number of individuals in population

A population of 150 individuals will be used
DPF> ga_num_evals 25000000                # maximum number of energy evaluations

There will be at most 25000000 function evaluations used.
DPF> ga_num_generations 27000             # maximum number of generations

The GA will run for at most 27000 generations.
DPF> ga_elitism 1                         # number of top individuals to survive to next generation

The 1 best will be preserved each GA generation.
DPF> ga_mutation_rate 0.02                # rate of gene mutation

The mutation rate is 0.020000.
DPF> ga_crossover_rate 0.8                # rate of crossover

The crossover rate is 0.800000.
DPF> ga_window_size 10                    # 

The GA's selection window is 10 generations.
DPF> ga_cauchy_alpha 0.0                  # Alpha parameter of Cauchy distribution

The alpha parameter (for the Cauchy distribution) is being set to 0.000000.
DPF> ga_cauchy_beta 1.0                   # Beta parameter Cauchy distribution

The beta parameter (for the Cauchy distribution) is being set to 1.000000.
DPF> set_ga                               # set the above parameters for GA or LGA

DPF> sw_max_its 300                       # iterations of Solis & Wets local search

Solis & Wets algorithms will perform at most 300 iterations.
DPF> sw_max_succ 4                        # consecutive successes before changing rho

Solis & Wets algorithms expand rho every 4 in a row successes.
DPF> sw_max_fail 4                        # consecutive failures before changing rho

Solis & Wets algorithms contract rho every 4 in a row failures.
DPF> sw_rho 1.0                           # size of local search space to sample

rho is set to 1.000000.
DPF> sw_lb_rho 0.01                       # lower bound on rho

rho will never get smaller than 0.010000.
DPF> ls_search_freq 0.06                  # probability of performing local search on individual

Local search will be performed with frequency 0.060000.
DPF> set_psw1                             # set the above pseudo-Solis & Wets parameters

Creating a new Local Search object using the pseudo-Solis-Wets algorithm (pSW1) with the current settings.

DPF> unbound_model bound                  # state of unbound ligand

DPF> ga_run 100                           # do this many hybrid GA-LS runs

centering ligand on specified point: -0.174 -0.001 -0.047
Furthest true ligand atom from "about" center is 8.241 Angstroms (maxrad).
Number of requested GA dockings = 100 runs
Unbound model to be used is 'same as bound' [AutoDock 4.2 default].

	BEGINNING GENETIC ALGORITHM DOCKING 1 of 100
Run: 1 Seed: 78479050 2090581368 [ Run 1 of 100 GA/GALS ]
Beginning LAMARCKIAN GENETIC ALGORITHM (LGA), with a maximum of 25000000 energy evaluations.

Final-Value: -17.766


	FINAL GENETIC ALGORITHM DOCKED STATE
	_______________________________________________


Detailed state:  trans 23.551 -7.177 32.308 quatxyzw -0.018861 0.657105 0.142928 -0.739885 center -0.174 -0.001 -0.047 ntor 10 80.3083 56.5603 -99.4791 -122.1685 154.8554 -164.1886 -50.9691 74.0136 -167.9428 -170.2330
State:	 23.551  -7.177  32.308  -0.028  0.977  0.212 -84.557     80.31   56.56  -99.48 -122.17  154.86 -164.19  -50.97   74.01 -167.94 -170.23

DOCKED: MODEL        1
DOCKED: USER    Run = 1
DOCKED: USER    DPF = D:/Protein_go_brrr/autodock/final/1A3N/heme_Fe/dock.dpf
DOCKED: USER  
DOCKED: USER    Estimated Free Energy of Binding    =  -12.98 kcal/mol  [=(1)+(2)+(3)-(4)]
DOCKED: USER    Estimated Inhibition Constant, Ki   =  305.42 pM (picomolar)  [Temperature = 298.15 K]
DOCKED: USER    
DOCKED: USER    (1) Final Intermolecular Energy     =  -15.96 kcal/mol
DOCKED: USER        vdW + Hbond + desolv Energy     =  -13.71 kcal/mol
DOCKED: USER        Electrostatic Energy            =   -2.25 kcal/mol
DOCKED: USER    (2) Final Total Internal Energy     =   -1.80 kcal/mol
DOCKED: USER    (3) Torsional Free Energy           =   +2.98 kcal/mol
DOCKED: USER    (4) Unbound System's Energy  [=(2)] =   -1.80 kcal/mol
DOCKED: USER    
DOCKED: USER    
DOCKED: USER    NEWDPF move heme_Fe_opt.pdbqt
DOCKED: USER    NEWDPF about -0.174000 -0.001000 -0.047000
DOCKED: USER    NEWDPF tran0 23.551098 -7.177266 32.308145
DOCKED: USER    NEWDPF quaternion0 -0.018861 0.657105 0.142928 -0.739885
DOCKED: USER    NEWDPF axisangle0 -0.028036 0.976768 0.212459 -84.556838
DOCKED: USER    NEWDPF quat0 -0.028036 0.976768 0.212459 -84.556838
DOCKED: USER    NEWDPF dihe0 80.31 56.56 -99.48 -122.17 154.86 -164.19 -50.97 74.01 -167.94 -170.23 
DOCKED: USER  keepresnum = 1 
DOCKED: USER  
DOCKED: REMARK  10 active torsions:
DOCKED: REMARK  status: ('A' for Active; 'I' for Inactive)
DOCKED: REMARK    1  A    between atoms: C_6  and  C_10 
DOCKED: REMARK    2  A    between atoms: C_10  and  C_11 
DOCKED: REMARK    3  A    between atoms: C_11  and  C_12 
DOCKED: REMARK    4  A    between atoms: C_12  and  O_14 
DOCKED: REMARK    5  A    between atoms: C_17  and  C_20 
DOCKED: REMARK    6  A    between atoms: C_24  and  C_27 
DOCKED: REMARK    7  A    between atoms: C_31  and  C_34 
DOCKED: REMARK    8  A    between atoms: C_34  and  C_35 
DOCKED: REMARK    9  A    between atoms: C_35  and  C_36 
DOCKED: REMARK   10  A    between atoms: C_36  and  O_38 
DOCKED: USER                              x       y       z     vdW  Elec       q    Type
DOCKED: USER                           _______ _______ _______ _____ _____    ______ ____
DOCKED: ROOT
DOCKED: ATOM      1  C   UNL d   1      23.890  -7.489  34.308 -0.33 +0.02    +0.064 C 
DOCKED: ATOM      2  C   UNL d   1      24.837 -10.036  30.179 -0.42 +0.00    +0.064 A 
DOCKED: ATOM      3  C   UNL d   1      23.948  -6.074  27.614 -0.43 +0.00    +0.064 C 
DOCKED: ATOM      4  C   UNL d   1      22.925  -3.618  31.590 -0.47 +0.01    +0.064 C 
DOCKED: ATOM      5  C   UNL d   1      24.158  -8.595  33.378 -0.31 +0.01    +0.066 A 
DOCKED: ATOM      6  C   UNL d   1      24.350  -9.914  33.754 -0.29 -0.00    -0.021 A 
DOCKED: ATOM      7  C   UNL d   1      24.617 -10.620  32.607 -0.27 -0.00    -0.025 A 
DOCKED: ATOM      8  C   UNL d   1      24.577  -9.704  31.574 -0.36 +0.01    +0.066 A 
DOCKED: ATOM      9  C   UNL d   1      24.874 -12.093  32.516 -0.11 +0.00    +0.051 C 
DOCKED: ATOM     10  C   UNL d   1      24.749  -9.183  29.157 -0.42 +0.00    +0.066 A 
DOCKED: ATOM     11  C   UNL d   1      25.116  -9.502  27.847 -0.48 -0.00    -0.021 A 
DOCKED: ATOM     12  C   UNL d   1      24.885  -8.370  27.091 -0.43 +0.00    +0.000 A 
DOCKED: ATOM     13  C   UNL d   1      24.392  -7.407  27.988 -0.36 +0.00    +0.070 A 
DOCKED: ATOM     14  C   UNL d   1      25.722 -10.799  27.353 -0.55 -0.00    +0.052 C 
DOCKED: ATOM     15  C   UNL d   1      23.522  -5.126  28.481 -0.38 +0.00    +0.066 A 
DOCKED: ATOM     16  C   UNL d   1      23.013  -3.899  28.075 -0.44 -0.00    -0.021 A 
DOCKED: ATOM     17  C   UNL d   1      22.720  -3.188  29.220 -0.47 +0.00    +0.000 A 
DOCKED: ATOM     18  C   UNL d   1      23.062  -3.997  30.300 -0.40 +0.01    +0.070 A 
DOCKED: ATOM     19  C   UNL d   1      22.831  -3.402  26.666 -0.55 +0.00    +0.052 C 
DOCKED: ATOM     20  C   UNL d   1      23.217  -4.466  32.752 -0.35 +0.01    +0.066 A 
DOCKED: ATOM     21  C   UNL d   1      23.271  -4.025  34.082 -0.35 -0.00    -0.025 A 
DOCKED: ATOM     22  C   UNL d   1      23.535  -5.147  34.841 -0.24 -0.00    -0.021 A 
DOCKED: ATOM     23  C   UNL d   1      23.637  -6.221  33.948 -0.22 +0.01    +0.066 A 
DOCKED: ATOM     24  C   UNL d   1      23.090  -2.625  34.621 -0.44 +0.01    +0.051 C 
DOCKED: ATOM     25  N   UNL d   1      24.288  -8.474  32.046 -0.22 -0.03    -0.248 N 
DOCKED: ATOM     26  N   UNL d   1      24.317  -7.899  29.250 -0.25 -0.01    -0.248 N 
DOCKED: ATOM     27  N   UNL d   1      23.514  -5.206  29.848 -0.25 -0.01    -0.248 N 
DOCKED: ATOM     28  N   UNL d   1      23.487  -5.791  32.672 -0.22 -0.03    -0.248 N 
DOCKED: ATOM     29 FE   UNL d   1      23.901  -6.843  30.961 -0.09 -0.00    +0.000 Fe
DOCKED: ENDROOT
DOCKED: BRANCH   6  30
DOCKED: ATOM     30  C   UNL d   1      24.264 -10.482  35.129 -0.23 +0.01    +0.052 C 
DOCKED: BRANCH  30  31
DOCKED: ATOM     31  C   UNL d   1      25.534 -10.183  35.917 +0.13 +0.07    +0.115 C 
DOCKED: BRANCH  31  32
DOCKED: ATOM     32  C   UNL d   1      25.196  -9.574  37.249 -0.12 +0.12    +0.139 C 
DOCKED: ATOM     33  O   UNL d   1      25.965  -9.676  38.195 -0.30 -0.80    -0.650 OA
DOCKED: BRANCH  32  34
DOCKED: ATOM     34  O   UNL d   1      24.039  -8.910  37.413 +0.02 -0.39    -0.776 OA
DOCKED: ATOM     35  H   UNL d   1      24.044  -7.943  37.377 +0.04 +0.09    +0.167 HD
DOCKED: ENDBRANCH  32  34
DOCKED: ENDBRANCH  31  32
DOCKED: ENDBRANCH  30  31
DOCKED: ENDBRANCH   6  30
DOCKED: BRANCH  22  36
DOCKED: ATOM     36  C   UNL d   1      23.726  -5.174  36.335 -0.23 +0.01    +0.052 C 
DOCKED: BRANCH  36  37
DOCKED: ATOM     37  C   UNL d   1      25.076  -4.568  36.690 -0.21 +0.04    +0.115 C 
DOCKED: BRANCH  37  38
DOCKED: ATOM     38  C   UNL d   1      26.049  -5.631  37.115 -0.20 +0.13    +0.139 C 
DOCKED: ATOM     39  O   UNL d   1      27.078  -5.337  37.705 -0.12 -0.82    -0.650 OA
DOCKED: BRANCH  38  40
DOCKED: ATOM     40  O   UNL d   1      25.792  -6.923  36.842 -0.12 -1.02    -0.776 OA
DOCKED: ATOM     41  H   UNL d   1      25.768  -7.561  37.569 +0.03 +0.30    +0.167 HD
DOCKED: ENDBRANCH  38  40
DOCKED: ENDBRANCH  37  38
DOCKED: ENDBRANCH  36  37
DOCKED: ENDBRANCH  22  36
DOCKED: BRANCH  12  42
DOCKED: ATOM     42  C   UNL d   1      25.147  -8.254  25.623 -0.52 +0.00    +0.004 C 
DOCKED: ATOM     43  C   UNL d   1      26.337  -8.588  25.107 -0.57 +0.00    +0.012 C 
DOCKED: ENDBRANCH  12  42
DOCKED: BRANCH  17  44
DOCKED: ATOM     44  C   UNL d   1      22.132  -1.830  29.276 -0.59 +0.00    +0.004 C 
DOCKED: ATOM     45  C   UNL d   1      22.828  -0.765  28.866 -0.64 +0.00    +0.012 C 
DOCKED: ENDBRANCH  17  44
DOCKED: TORSDOF 10
DOCKED: TER
DOCKED: ENDMDL
________________________________________________________________________________


	BEGINNING GENETIC ALGORITHM DOCKING 2 of 100
Run: 2 Seed: 765278900 1680901323 [ Run 2 of 100 GA/GALS ]
Beginning LAMARCKIAN GENETIC ALGORITHM (LGA), with a maximum of 25000000 energy evaluations.

Final-Value: -17.599


	FINAL GENETIC ALGORITHM DOCKED STATE
	_______________________________________________


Detailed state:  trans 2.840 -6.500 -4.492 quatxyzw -0.255423 -0.710626 -0.092759 -0.648972 center -0.174 -0.001 -0.047 ntor 10 69.1127 58.7644 -106.7048 -139.7426 -114.8163 -121.0770 -65.3667 -68.3810 -180.0000 13.8203
State:	  2.840  -6.500  -4.492  -0.336 -0.934 -0.122 -99.072     69.11   58.76 -106.70 -139.74 -114.82 -121.08  -65.37  -68.38 -180.00   13.82

DOCKED: MODEL        2
DOCKED: USER    Run = 2
DOCKED: USER    DPF = D:/Protein_go_brrr/autodock/final/1A3N/heme_Fe/dock.dpf
DOCKED: USER  
DOCKED: USER    Estimated Free Energy of Binding    =  -11.97 kcal/mol  [=(1)+(2)+(3)-(4)]
DOCKED: USER    Estimated Inhibition Constant, Ki   =    1.68 nM (nanomolar)  [Temperature = 298.15 K]
DOCKED: USER    
DOCKED: USER    (1) Final Intermolecular Energy     =  -14.95 kcal/mol
DOCKED: USER        vdW + Hbond + desolv Energy     =  -13.56 kcal/mol
DOCKED: USER        Electrostatic Energy            =   -1.39 kcal/mol
DOCKED: USER    (2) Final Total Internal Energy     =   -2.65 kcal/mol
DOCKED: USER    (3) Torsional Free Energy           =   +2.98 kcal/mol
DOCKED: USER    (4) Unbound System's Energy  [=(2)] =   -2.65 kcal/mol
DOCKED: USER    
DOCKED: USER    
DOCKED: USER    NEWDPF move heme_Fe_opt.pdbqt
DOCKED: USER    NEWDPF about -0.174000 -0.001000 -0.047000
DOCKED: USER    NEWDPF tran0 2.840083 -6.499811 -4.491615
DOCKED: USER    NEWDPF quaternion0 -0.255423 -0.710626 -0.092759 -0.648972
DOCKED: USER    NEWDPF axisangle0 -0.335724 -0.934037 -0.121922 -99.071663
DOCKED: USER    NEWDPF quat0 -0.335724 -0.934037 -0.121922 -99.071663
DOCKED: USER    NEWDPF dihe0 69.11 58.76 -106.70 -139.74 -114.82 -121.08 -65.37 -68.38 -180.00 13.82 
DOCKED: USER  keepresnum = 1 
DOCKED: USER  
DOCKED: REMARK  10 active torsions:
DOCKED: REMARK  status: ('A' for Active; 'I' for Inactive)
DOCKED: REMARK    1  A    between atoms: C_6  and  C_10 
DOCKED: REMARK    2  A    between atoms: C_10  and  C_11 
DOCKED: REMARK    3  A    between atoms: C_11  and  C_12 
DOCKED: REMARK    4  A    between atoms: C_12  and  O_14 
DOCKED: REMARK    5  A    between atoms: C_17  and  C_20 
DOCKED: REMARK    6  A    between atoms: C_24  and  C_27 
DOCKED: REMARK    7  A    between atoms: C_31  and  C_34 
DOCKED: REMARK    8  A    between atoms: C_34  and  C_35 
DOCKED: REMARK    9  A    between atoms: C_35  and  C_36 
DOCKED: REMARK   10  A    between atoms: C_36  and  O_38 
DOCKED: USER                              x       y       z     vdW  Elec       q    Type
DOCKED: USER                           _______ _______ _______ _____ _____    ______ ____
DOCKED: ROOT
DOCKED: ATOM      1  C   UNL d   1       2.400  -6.784  -6.476 -0.28 +0.02    +0.064 C 
DOCKED: ATOM      2  C   UNL d   1       0.863  -8.822  -2.243 -0.37 +0.00    +0.064 A 
DOCKED: ATOM      3  C   UNL d   1       2.825  -5.152   0.156 -0.41 +0.00    +0.064 C 
DOCKED: ATOM      4  C   UNL d   1       4.413  -3.217  -3.921 -0.48 +0.01    +0.064 C 
DOCKED: ATOM      5  C   UNL d   1       1.858  -7.741  -5.501 -0.32 +0.01    +0.066 A 
DOCKED: ATOM      6  C   UNL d   1       1.312  -8.973  -5.821 -0.31 -0.00    -0.021 A 
DOCKED: ATOM      7  C   UNL d   1       0.882  -9.536  -4.646 -0.32 -0.00    -0.025 A 
DOCKED: ATOM      8  C   UNL d   1       1.183  -8.626  -3.651 -0.30 +0.01    +0.066 A 
DOCKED: ATOM      9  C   UNL d   1       0.238 -10.881  -4.495 -0.22 +0.01    +0.051 C 
DOCKED: ATOM     10  C   UNL d   1       1.193  -7.986  -1.257 -0.37 +0.00    +0.066 A 
DOCKED: ATOM     11  C   UNL d   1       0.773  -8.145   0.066 -0.45 -0.00    -0.021 A 
DOCKED: ATOM     12  C   UNL d   1       1.312  -7.089   0.775 -0.39 +0.00    +0.000 A 
DOCKED: ATOM     13  C   UNL d   1       2.033  -6.330  -0.163 -0.37 +0.00    +0.070 A 
DOCKED: ATOM     14  C   UNL d   1      -0.153  -9.211   0.615 -0.58 -0.00    +0.052 C 
DOCKED: ATOM     15  C   UNL d   1       3.478  -4.388  -0.751 -0.37 +0.00    +0.066 A 
DOCKED: ATOM     16  C   UNL d   1       4.305  -3.330  -0.397 -0.47 -0.00    -0.021 A 
DOCKED: ATOM     17  C   UNL d   1       4.761  -2.768  -1.571 -0.49 +0.00    +0.000 A 
DOCKED: ATOM     18  C   UNL d   1       4.197  -3.496  -2.617 -0.39 +0.01    +0.070 A 
DOCKED: ATOM     19  C   UNL d   1       4.635  -2.847   0.990 -0.48 +0.00    +0.052 C 
DOCKED: ATOM     20  C   UNL d   1       3.886  -3.998  -5.047 -0.41 +0.01    +0.066 A 
DOCKED: ATOM     21  C   UNL d   1       3.933  -3.610  -6.394 -0.43 -0.00    -0.025 A 
DOCKED: ATOM     22  C   UNL d   1       3.365  -4.647  -7.105 -0.35 -0.00    -0.021 A 
DOCKED: ATOM     23  C   UNL d   1       2.991  -5.619  -6.169 -0.29 +0.02    +0.066 A 
DOCKED: ATOM     24  C   UNL d   1       4.477  -2.332  -6.989 -0.16 -0.00    +0.051 C 
DOCKED: ATOM     25  N   UNL d   1       1.785  -7.539  -4.174 -0.22 -0.03    -0.248 N 
DOCKED: ATOM     26  N   UNL d   1       1.953  -6.871  -1.403 -0.23 +0.00    -0.248 N 
DOCKED: ATOM     27  N   UNL d   1       3.443  -4.519  -2.114 -0.23 -0.01    -0.248 N 
DOCKED: ATOM     28  N   UNL d   1       3.270  -5.197  -4.912 -0.23 -0.05    -0.248 N 
DOCKED: ATOM     29 FE   UNL d   1       2.613  -6.033  -3.158 -0.08 +0.00    +0.000 Fe
DOCKED: ENDROOT
DOCKED: BRANCH   6  30
DOCKED: ATOM     30  C   UNL d   1       1.221  -9.595  -7.173 -0.24 +0.01    +0.052 C 
DOCKED: BRANCH  30  31
DOCKED: ATOM     31  C   UNL d   1      -0.092  -9.221  -7.853 -0.17 +0.06    +0.115 C 
DOCKED: BRANCH  31  32
DOCKED: ATOM     32  C   UNL d   1       0.168  -8.378  -9.070 -0.15 +0.10    +0.139 C 
DOCKED: ATOM     33  O   UNL d   1      -0.213  -7.217  -9.117 -0.27 -1.02    -0.650 OA
DOCKED: BRANCH  32  34
DOCKED: ATOM     34  O   UNL d   1       0.823  -8.896 -10.122 +0.04 -0.33    -0.776 OA
DOCKED: ATOM     35  H   UNL d   1       1.714  -8.576 -10.325 +0.03 +0.06    +0.167 HD
DOCKED: ENDBRANCH  32  34
DOCKED: ENDBRANCH  31  32
DOCKED: ENDBRANCH  30  31
DOCKED: ENDBRANCH   6  30
DOCKED: BRANCH  22  36
DOCKED: ATOM     36  C   UNL d   1       3.152  -4.678  -8.595 -0.29 +0.01    +0.052 C 
DOCKED: BRANCH  36  37
DOCKED: ATOM     37  C   UNL d   1       4.079  -5.706  -9.226 -0.08 +0.02    +0.115 C 
DOCKED: BRANCH  37  38
DOCKED: ATOM     38  C   UNL d   1       3.304  -6.883  -9.747 -0.12 +0.03    +0.139 C 
DOCKED: ATOM     39  O   UNL d   1       3.530  -8.012  -9.338 +0.00 -0.13    -0.650 OA
DOCKED: BRANCH  38  40
DOCKED: ATOM     40  O   UNL d   1       2.351  -6.699 -10.679 +0.06 -0.28    -0.776 OA
DOCKED: ATOM     41  H   UNL d   1       1.444  -6.976 -10.485 +0.04 +0.09    +0.167 HD
DOCKED: ENDBRANCH  38  40
DOCKED: ENDBRANCH  37  38
DOCKED: ENDBRANCH  36  37
DOCKED: ENDBRANCH  22  36
DOCKED: BRANCH  12  42
DOCKED: ATOM     42  C   UNL d   1       1.112  -6.850   2.238 -0.51 +0.00    +0.004 C 
DOCKED: ATOM     43  C   UNL d   1      -0.115  -6.689   2.749 -0.55 +0.00    +0.012 C 
DOCKED: ENDBRANCH  12  42
DOCKED: BRANCH  17  44
DOCKED: ATOM     44  C   UNL d   1       5.692  -1.623  -1.685 -0.65 +0.00    +0.004 C 
DOCKED: ATOM     45  C   UNL d   1       5.238  -0.366  -1.657 -0.70 +0.00    +0.012 C 
DOCKED: ENDBRANCH  17  44
DOCKED: TORSDOF 10
DOCKED: TER
DOCKED: ENDMDL
________________________________________________________________________________


	BEGINNING GENETIC ALGORITHM DOCKING 3 of 100
Run: 3 Seed: 739364575 1950947595 [ Run 3 of 100 GA/GALS ]
Beginning LAMARCKIAN GENETIC ALGORITHM (LGA), with a maximum of 25000000 energy evaluations.

Final-Value: -18.172


	FINAL GENETIC ALGORITHM DOCKED STATE
	_______________________________________________


Detailed state:  trans 23.610 -7.068 32.378 quatxyzw -0.018902 0.675207 0.134700 -0.724979 center -0.174 -0.001 -0.047 ntor 10 -77.6943 142.0855 84.4771 -124.0342 176.8696 178.2612 61.6285 72.8934 -54.4538 -168.2751
State:	 23.610  -7.068  32.378  -0.027  0.980  0.196 -87.066    -77.69  142.09   84.48 -124.03  176.87  178.26   61.63   72.89  -54.45 -168.28

DOCKED: MODEL        3
DOCKED: USER    Run = 3
DOCKED: USER    DPF = D:/Protein_go_brrr/autodock/final/1A3N/heme_Fe/dock.dpf
DOCKED: USER  
DOCKED: USER    Estimated Free Energy of Binding    =  -13.41 kcal/mol  [=(1)+(2)+(3)-(4)]
DOCKED: USER    Estimated Inhibition Constant, Ki   =  147.25 pM (picomolar)  [Temperature = 298.15 K]
DOCKED: USER    
DOCKED: USER    (1) Final Intermolecular Energy     =  -16.40 kcal/mol
DOCKED: USER        vdW + Hbond + desolv Energy     =  -14.22 kcal/mol
DOCKED: USER        Electrostatic Energy            =   -2.17 kcal/mol
DOCKED: USER    (2) Final Total Internal Energy     =   -1.78 kcal/mol
DOCKED: USER    (3) Torsional Free Energy           =   +2.98 kcal/mol
DOCKED: USER    (4) Unbound System's Energy  [=(2)] =   -1.78 kcal/mol
DOCKED: USER    
DOCKED: USER    
DOCKED: USER    NEWDPF move heme_Fe_opt.pdbqt
DOCKED: USER    NEWDPF about -0.174000 -0.001000 -0.047000
DOCKED: USER    NEWDPF tran0 23.609768 -7.067797 32.377595
DOCKED: USER    NEWDPF quaternion0 -0.018902 0.675207 0.134700 -0.724979
DOCKED: USER    NEWDPF axisangle0 -0.027443 0.980307 0.195565 -87.065881
DOCKED: USER    NEWDPF quat0 -0.027443 0.980307 0.195565 -87.065881
DOCKED: USER    NEWDPF dihe0 -77.69 142.09 84.48 -124.03 176.87 178.26 61.63 72.89 -54.45 -168.28 
DOCKED: USER  keepresnum = 1 
DOCKED: USER  
DOCKED: REMARK  10 active torsions:
DOCKED: REMARK  status: ('A' for Active; 'I' for Inactive)
DOCKED: REMARK    1  A    between atoms: C_6  and  C_10 
DOCKED: REMARK    2  A    between atoms: C_10  and  C_11 
DOCKED: REMARK    3  A    between atoms: C_11  and  C_12 
DOCKED: REMARK    4  A    between atoms: C_12  and  O_14 
DOCKED: REMARK    5  A    between atoms: C_17  and  C_20 
DOCKED: REMARK    6  A    between atoms: C_24  and  C_27 
DOCKED: REMARK    7  A    between atoms: C_31  and  C_34 
DOCKED: REMARK    8  A    between atoms: C_34  and  C_35 
DOCKED: REMARK    9  A    between atoms: C_35  and  C_36 
DOCKED: REMARK   10  A    between atoms: C_36  and  O_38 
DOCKED: USER                              x       y       z     vdW  Elec       q    Type
DOCKED: USER                           _______ _______ _______ _____ _____    ______ ____
DOCKED: ROOT
DOCKED: ATOM      1  C   UNL d   1      24.038  -7.350  34.365 -0.31 +0.02    +0.064 C 
DOCKED: ATOM      2  C   UNL d   1      24.773  -9.972  30.240 -0.42 +0.00    +0.064 A 
DOCKED: ATOM      3  C   UNL d   1      23.799  -6.045  27.652 -0.44 +0.00    +0.064 C 
DOCKED: ATOM      4  C   UNL d   1      22.980  -3.516  31.629 -0.48 +0.01    +0.064 C 
DOCKED: ATOM      5  C   UNL d   1      24.254  -8.473  33.442 -0.31 +0.01    +0.066 A 
DOCKED: ATOM      6  C   UNL d   1      24.452  -9.788  33.831 -0.29 -0.00    -0.021 A 
DOCKED: ATOM      7  C   UNL d   1      24.660 -10.515  32.685 -0.30 -0.00    -0.025 A 
DOCKED: ATOM      8  C   UNL d   1      24.580  -9.615  31.640 -0.36 +0.01    +0.066 A 
DOCKED: ATOM      9  C   UNL d   1      24.901 -11.991  32.607 -0.15 +0.00    +0.051 C 
DOCKED: ATOM     10  C   UNL d   1      24.645  -9.135  29.209 -0.41 +0.00    +0.066 A 
DOCKED: ATOM     11  C   UNL d   1      24.948  -9.479  27.889 -0.48 -0.00    -0.021 A 
DOCKED: ATOM     12  C   UNL d   1      24.692  -8.358  27.125 -0.44 +0.00    +0.000 A 
DOCKED: ATOM     13  C   UNL d   1      24.248  -7.376  28.028 -0.39 +0.00    +0.070 A 
DOCKED: ATOM     14  C   UNL d   1      25.520 -10.790  27.390 -0.60 -0.00    +0.052 C 
DOCKED: ATOM     15  C   UNL d   1      23.421  -5.079  28.522 -0.38 +0.00    +0.066 A 
DOCKED: ATOM     16  C   UNL d   1      22.903  -3.855  28.119 -0.45 -0.00    -0.021 A 
DOCKED: ATOM     17  C   UNL d   1      22.670  -3.122  29.264 -0.47 +0.00    +0.000 A 
DOCKED: ATOM     18  C   UNL d   1      23.055  -3.917  30.341 -0.40 +0.01    +0.070 A 
DOCKED: ATOM     19  C   UNL d   1      22.661  -3.380  26.712 -0.54 +0.00    +0.052 C 
DOCKED: ATOM     20  C   UNL d   1      23.318  -4.346  32.791 -0.22 +0.01    +0.066 A 
DOCKED: ATOM     21  C   UNL d   1      23.438  -3.885  34.110 -0.32 -0.00    -0.025 A 
DOCKED: ATOM     22  C   UNL d   1      23.727  -4.996  34.874 -0.21 -0.00    -0.021 A 
DOCKED: ATOM     23  C   UNL d   1      23.779  -6.085  33.996 -0.17 +0.01    +0.066 A 
DOCKED: ATOM     24  C   UNL d   1      23.293  -2.474  34.632 -0.44 +0.01    +0.051 C 
DOCKED: ATOM     25  N   UNL d   1      24.323  -8.375  32.103 -0.23 -0.03    -0.248 N 
DOCKED: ATOM     26  N   UNL d   1      24.228  -7.847  29.300 -0.25 -0.00    -0.248 N 
DOCKED: ATOM     27  N   UNL d   1      23.476  -5.136  29.889 -0.25 -0.01    -0.248 N 
DOCKED: ATOM     28  N   UNL d   1      23.573  -5.675  32.721 -0.20 -0.04    -0.248 N 
DOCKED: ATOM     29 FE   UNL d   1      23.900  -6.759  31.010 -0.09 -0.00    +0.000 Fe
DOCKED: ENDROOT
DOCKED: BRANCH   6  30
DOCKED: ATOM     30  C   UNL d   1      24.425 -10.332  35.218 -0.23 +0.02    +0.052 C 
DOCKED: BRANCH  30  31
DOCKED: ATOM     31  C   UNL d   1      23.391  -9.600  36.066 -0.19 +0.03    +0.115 C 
DOCKED: BRANCH  31  32
DOCKED: ATOM     32  C   UNL d   1      24.055  -8.906  37.223 -0.14 +0.07    +0.139 C 
DOCKED: ATOM     33  O   UNL d   1      23.404  -8.212  37.991 +0.01 -0.25    -0.650 OA
DOCKED: BRANCH  32  34
DOCKED: ATOM     34  O   UNL d   1      25.377  -9.044  37.423 -0.38 -0.86    -0.776 OA
DOCKED: ATOM     35  H   UNL d   1      25.968  -8.324  37.161 +0.03 +0.34    +0.167 HD
DOCKED: ENDBRANCH  32  34
DOCKED: ENDBRANCH  31  32
DOCKED: ENDBRANCH  30  31
DOCKED: ENDBRANCH   6  30
DOCKED: BRANCH  22  36
DOCKED: ATOM     36  C   UNL d   1      23.987  -5.000  36.357 -0.23 +0.02    +0.052 C 
DOCKED: BRANCH  36  37
DOCKED: ATOM     37  C   UNL d   1      25.335  -4.356  36.644 -0.23 +0.04    +0.115 C 
DOCKED: BRANCH  37  38
DOCKED: ATOM     38  C   UNL d   1      26.346  -5.387  37.062 -0.20 +0.13    +0.139 C 
DOCKED: ATOM     39  O   UNL d   1      27.501  -5.067  37.303 -0.32 -0.74    -0.650 OA
DOCKED: BRANCH  38  40
DOCKED: ATOM     40  O   UNL d   1      25.984  -6.677  37.169 -0.13 -1.13    -0.776 OA
DOCKED: ATOM     41  H   UNL d   1      25.110  -6.892  37.525 +0.03 +0.15    +0.167 HD
DOCKED: ENDBRANCH  38  40
DOCKED: ENDBRANCH  37  38
DOCKED: ENDBRANCH  36  37
DOCKED: ENDBRANCH  22  36
DOCKED: BRANCH  12  42
DOCKED: ATOM     42  C   UNL d   1      24.887  -8.268  25.645 -0.53 +0.00    +0.004 C 
DOCKED: ATOM     43  C   UNL d   1      23.934  -7.758  24.854 -0.54 +0.00    +0.012 C 
DOCKED: ENDBRANCH  12  42
DOCKED: BRANCH  17  44
DOCKED: ATOM     44  C   UNL d   1      22.096  -1.759  29.325 -0.57 +0.00    +0.004 C 
DOCKED: ATOM     45  C   UNL d   1      22.796  -0.702  28.899 -0.63 +0.00    +0.012 C 
DOCKED: ENDBRANCH  17  44
DOCKED: TORSDOF 10
DOCKED: TER
DOCKED: ENDMDL
________________________________________________________________________________


	BEGINNING GENETIC ALGORITHM DOCKING 4 of 100
Run: 4 Seed: 1156947695 2048991915 [ Run 4 of 100 GA/GALS ]
Beginning LAMARCKIAN GENETIC ALGORITHM (LGA), with a maximum of 25000000 energy evaluations.

Final-Value: -17.265


	FINAL GENETIC ALGORITHM DOCKED STATE
	_______________________________________________


Detailed state:  trans 7.893 13.650 30.759 quatxyzw 0.650546 -0.052314 -0.701973 -0.285108 center -0.174 -0.001 -0.047 ntor 10 114.4691 -32.1515 66.1466 77.1386 133.2243 95.5856 64.3943 155.1930 -44.6575 -174.0542
State:	  7.893  13.650  30.759   0.679 -0.055 -0.732 -146.869    114.47  -32.15   66.15   77.14  133.22   95.59   64.39  155.19  -44.66 -174.05

DOCKED: MODEL        4
DOCKED: USER    Run = 4
DOCKED: USER    DPF = D:/Protein_go_brrr/autodock/final/1A3N/heme_Fe/dock.dpf
DOCKED: USER  
DOCKED: USER    Estimated Free Energy of Binding    =  -13.78 kcal/mol  [=(1)+(2)+(3)-(4)]
DOCKED: USER    Estimated Inhibition Constant, Ki   =   79.07 pM (picomolar)  [Temperature = 298.15 K]
DOCKED: USER    
DOCKED: USER    (1) Final Intermolecular Energy     =  -16.76 kcal/mol
DOCKED: USER        vdW + Hbond + desolv Energy     =  -14.08 kcal/mol
DOCKED: USER        Electrostatic Energy            =   -2.68 kcal/mol
DOCKED: USER    (2) Final Total Internal Energy     =   -0.50 kcal/mol
DOCKED: USER    (3) Torsional Free Energy           =   +2.98 kcal/mol
DOCKED: USER    (4) Unbound System's Energy  [=(2)] =   -0.50 kcal/mol
DOCKED: USER    
DOCKED: USER    
DOCKED: USER    NEWDPF move heme_Fe_opt.pdbqt
DOCKED: USER    NEWDPF about -0.174000 -0.001000 -0.047000
DOCKED: USER    NEWDPF tran0 7.893408 13.650215 30.759295
DOCKED: USER    NEWDPF quaternion0 0.650546 -0.052314 -0.701973 -0.285108
DOCKED: USER    NEWDPF axisangle0 0.678716 -0.054580 -0.732370 -146.869432
DOCKED: USER    NEWDPF quat0 0.678716 -0.054580 -0.732370 -146.869432
DOCKED: USER    NEWDPF dihe0 114.47 -32.15 66.15 77.14 133.22 95.59 64.39 155.19 -44.66 -174.05 
DOCKED: USER  keepresnum = 1 
DOCKED: USER  
DOCKED: REMARK  10 active torsions:
DOCKED: REMARK  status: ('A' for Active; 'I' for Inactive)
DOCKED: REMARK    1  A    between atoms: C_6  and  C_10 
DOCKED: REMARK    2  A    between atoms: C_10  and  C_11 
DOCKED: REMARK    3  A    between atoms: C_11  and  C_12 
DOCKED: REMARK    4  A    between atoms: C_12  and  O_14 
DOCKED: REMARK    5  A    between atoms: C_17  and  C_20 
DOCKED: REMARK    6  A    between atoms: C_24  and  C_27 
DOCKED: REMARK    7  A    between atoms: C_31  and  C_34 
DOCKED: REMARK    8  A    between atoms: C_34  and  C_35 
DOCKED: REMARK    9  A    between atoms: C_35  and  C_36 
DOCKED: REMARK   10  A    between atoms: C_36  and  O_38 
DOCKED: USER                              x       y       z     vdW  Elec       q    Type
DOCKED: USER                           _______ _______ _______ _____ _____    ______ ____
DOCKED: ROOT
DOCKED: ATOM      1  C   UNL d   1       7.354  14.469  32.562 -0.29 +0.04    +0.064 C 
DOCKED: ATOM      2  C   UNL d   1       6.465  15.582  27.829 -0.43 +0.01    +0.064 A 
DOCKED: ATOM      3  C   UNL d   1       8.022  11.214  26.581 -0.37 +0.00    +0.064 C 
DOCKED: ATOM      4  C   UNL d   1       8.988  10.154  31.145 -0.41 +0.02    +0.064 C 
DOCKED: ATOM      5  C   UNL d   1       7.038  15.218  31.338 -0.29 +0.03    +0.066 A 
DOCKED: ATOM      6  C   UNL d   1       6.663  16.551  31.301 -0.27 -0.01    -0.021 A 
DOCKED: ATOM      7  C   UNL d   1       6.412  16.858  29.987 -0.35 -0.01    -0.025 A 
DOCKED: ATOM      8  C   UNL d   1       6.645  15.700  29.271 -0.39 +0.01    +0.066 A 
DOCKED: ATOM      9  C   UNL d   1       5.993  18.195  29.457 -0.38 +0.01    +0.051 C 
DOCKED: ATOM     10  C   UNL d   1       6.738  14.494  27.107 -0.38 +0.01    +0.066 A 
DOCKED: ATOM     11  C   UNL d   1       6.447  14.375  25.746 -0.40 -0.00    -0.021 A 
DOCKED: ATOM     12  C   UNL d   1       6.871  13.117  25.365 -0.39 +0.00    +0.000 A 
DOCKED: ATOM     13  C   UNL d   1       7.396  12.525  26.528 -0.34 +0.00    +0.070 A 
DOCKED: ATOM     14  C   UNL d   1       5.737  15.383  24.866 -0.53 +0.00    +0.052 C 
DOCKED: ATOM     15  C   UNL d   1       8.482  10.619  27.707 -0.34 +0.01    +0.066 A 
DOCKED: ATOM     16  C   UNL d   1       9.163   9.408  27.701 -0.42 -0.00    -0.021 A 
DOCKED: ATOM     17  C   UNL d   1       9.439   9.099  29.017 -0.44 +0.00    +0.000 A 
DOCKED: ATOM     18  C   UNL d   1       8.916  10.128  29.796 -0.38 +0.02    +0.070 A 
DOCKED: ATOM     19  C   UNL d   1       9.519   8.560  26.510 -0.45 +0.01    +0.052 C 
DOCKED: ATOM     20  C   UNL d   1       8.503  11.249  31.993 -0.29 +0.03    +0.066 A 
DOCKED: ATOM     21  C   UNL d   1       8.390  11.202  33.390 -0.28 -0.01    -0.025 A 
DOCKED: ATOM     22  C   UNL d   1       7.934  12.446  33.774 -0.22 -0.01    -0.021 A 
DOCKED: ATOM     23  C   UNL d   1       7.783  13.197  32.602 -0.22 +0.04    +0.066 A 
DOCKED: ATOM     24  C   UNL d   1       8.687  10.050  34.322 -0.33 +0.03    +0.051 C 
DOCKED: ATOM     25  N   UNL d   1       7.035  14.706  30.095 -0.22 -0.07    -0.248 N 
DOCKED: ATOM     26  N   UNL d   1       7.307  13.361  27.591 -0.23 -0.03    -0.248 N 
DOCKED: ATOM     27  N   UNL d   1       8.365  11.084  28.989 -0.22 -0.05    -0.248 N 
DOCKED: ATOM     28  N   UNL d   1       8.088  12.447  31.516 -0.10 -0.09    -0.248 N 
DOCKED: ATOM     29 FE   UNL d   1       7.698  12.902  29.554 -0.08 +0.00    +0.000 Fe
DOCKED: ENDROOT
DOCKED: BRANCH   6  30
DOCKED: ATOM     30  C   UNL d   1       6.567  17.492  32.452 -0.14 +0.03    +0.052 C 
DOCKED: BRANCH  30  31
DOCKED: ATOM     31  C   UNL d   1       7.782  17.359  33.363 -0.17 +0.07    +0.115 C 
DOCKED: BRANCH  31  32
DOCKED: ATOM     32  C   UNL d   1       7.372  16.855  34.718 -0.08 +0.16    +0.139 C 
DOCKED: ATOM     33  O   UNL d   1       7.987  15.945  35.258 -0.26 -0.72    -0.650 OA
DOCKED: BRANCH  32  34
DOCKED: ATOM     34  O   UNL d   1       6.320  17.401  35.351 -0.38 -1.26    -0.776 OA
DOCKED: ATOM     35  H   UNL d   1       6.372  18.325  35.636 +0.01 +0.15    +0.167 HD
DOCKED: ENDBRANCH  32  34
DOCKED: ENDBRANCH  31  32
DOCKED: ENDBRANCH  30  31
DOCKED: ENDBRANCH   6  30
DOCKED: BRANCH  22  36
DOCKED: ATOM     36  C   UNL d   1       7.617  12.870  35.183 -0.17 +0.05    +0.052 C 
DOCKED: BRANCH  36  37
DOCKED: ATOM     37  C   UNL d   1       6.275  12.289  35.605 -0.21 +0.13    +0.115 C 
DOCKED: BRANCH  37  38
DOCKED: ATOM     38  C   UNL d   1       5.403  12.026  34.410 -0.33 +0.14    +0.139 C 
DOCKED: ATOM     39  O   UNL d   1       5.362  10.917  33.898 -0.03 -0.33    -0.650 OA
DOCKED: BRANCH  38  40
DOCKED: ATOM     40  O   UNL d   1       4.660  13.019  33.890 -0.54 -1.21    -0.776 OA
DOCKED: ATOM     41  H   UNL d   1       4.491  13.032  32.937 -0.39 +0.12    +0.167 HD
DOCKED: ENDBRANCH  38  40
DOCKED: ENDBRANCH  37  38
DOCKED: ENDBRANCH  36  37
DOCKED: ENDBRANCH  22  36
DOCKED: BRANCH  12  42
DOCKED: ATOM     42  C   UNL d   1       6.748  12.553  23.986 -0.43 +0.00    +0.004 C 
DOCKED: ATOM     43  C   UNL d   1       7.835  12.288  23.249 -0.44 +0.00    +0.012 C 
DOCKED: ENDBRANCH  12  42
DOCKED: BRANCH  17  44
DOCKED: ATOM     44  C   UNL d   1      10.175   7.906  29.496 -0.52 +0.00    +0.004 C 
DOCKED: ATOM     45  C   UNL d   1      11.176   8.026  30.374 -0.56 +0.00    +0.012 C 
DOCKED: ENDBRANCH  17  44
DOCKED: TORSDOF 10
DOCKED: TER
DOCKED: ENDMDL
________________________________________________________________________________


	BEGINNING GENETIC ALGORITHM DOCKING 5 of 100
Run: 5 Seed: 1747694172 526868232 [ Run 5 of 100 GA/GALS ]
Beginning LAMARCKIAN GENETIC ALGORITHM (LGA), with a maximum of 25000000 energy evaluations.

Final-Value: -12.279


	FINAL GENETIC ALGORITHM DOCKED STATE
	_______________________________________________


Detailed state:  trans 18.366 -4.603 10.096 quatxyzw -0.804375 -0.408134 -0.431665 0.008550 center -0.174 -0.001 -0.047 ntor 10 -112.2104 80.4888 -173.4311 13.7290 128.4567 109.4822 -61.0100 -42.2690 -17.5521 48.3717
State:	 18.366  -4.603  10.096  -0.804 -0.408 -0.432 179.020   -112.21   80.49 -173.43   13.73  128.46  109.48  -61.01  -42.27  -17.55   48.37

DOCKED: MODEL        5
DOCKED: USER    Run = 5
DOCKED: USER    DPF = D:/Protein_go_brrr/autodock/final/1A3N/heme_Fe/dock.dpf
DOCKED: USER  
DOCKED: USER    Estimated Free Energy of Binding    =   -8.83 kcal/mol  [=(1)+(2)+(3)-(4)]
DOCKED: USER    Estimated Inhibition Constant, Ki   =  334.25 nM (nanomolar)  [Temperature = 298.15 K]
DOCKED: USER    
DOCKED: USER    (1) Final Intermolecular Energy     =  -11.82 kcal/mol
DOCKED: USER        vdW + Hbond + desolv Energy     =  -10.89 kcal/mol
DOCKED: USER        Electrostatic Energy            =   -0.92 kcal/mol
DOCKED: USER    (2) Final Total Internal Energy     =   -0.46 kcal/mol
DOCKED: USER    (3) Torsional Free Energy           =   +2.98 kcal/mol
DOCKED: USER    (4) Unbound System's Energy  [=(2)] =   -0.46 kcal/mol
DOCKED: USER    
DOCKED: USER    
DOCKED: USER    NEWDPF move heme_Fe_opt.pdbqt
DOCKED: USER    NEWDPF about -0.174000 -0.001000 -0.047000
DOCKED: USER    NEWDPF tran0 18.365677 -4.603387 10.096392
DOCKED: USER    NEWDPF quaternion0 -0.804375 -0.408134 -0.431665 0.008550
DOCKED: USER    NEWDPF axisangle0 -0.804404 -0.408149 -0.431681 179.020252
DOCKED: USER    NEWDPF quat0 -0.804404 -0.408149 -0.431681 179.020252
DOCKED: USER    NEWDPF dihe0 -112.21 80.49 -173.43 13.73 128.46 109.48 -61.01 -42.27 -17.55 48.37 
DOCKED: USER  keepresnum = 1 
DOCKED: USER  
DOCKED: REMARK  10 active torsions:
DOCKED: REMARK  status: ('A' for Active; 'I' for Inactive)
DOCKED: REMARK    1  A    between atoms: C_6  and  C_10 
DOCKED: REMARK    2  A    between atoms: C_10  and  C_11 
DOCKED: REMARK    3  A    between atoms: C_11  and  C_12 
DOCKED: REMARK    4  A    between atoms: C_12  and  O_14 
DOCKED: REMARK    5  A    between atoms: C_17  and  C_20 
DOCKED: REMARK    6  A    between atoms: C_24  and  C_27 
DOCKED: REMARK    7  A    between atoms: C_31  and  C_34 
DOCKED: REMARK    8  A    between atoms: C_34  and  C_35 
DOCKED: REMARK    9  A    between atoms: C_35  and  C_36 
DOCKED: REMARK   10  A    between atoms: C_36  and  O_38 
DOCKED: USER                              x       y       z     vdW  Elec       q    Type
DOCKED: USER                           _______ _______ _______ _____ _____    ______ ____
DOCKED: ROOT
DOCKED: ATOM      1  C   UNL d   1      18.118  -5.699   8.379 -0.24 +0.00    +0.064 C 
DOCKED: ATOM      2  C   UNL d   1      16.897  -1.123   9.794 -0.23 -0.01    +0.064 A 
DOCKED: ATOM      3  C   UNL d   1      19.916  -1.541  13.507 -0.16 -0.00    +0.064 C 
DOCKED: ATOM      4  C   UNL d   1      21.032  -6.010  12.215 -0.27 +0.00    +0.064 C 
DOCKED: ATOM      5  C   UNL d   1      17.432  -4.404   8.481 -0.18 -0.00    +0.066 A 
DOCKED: ATOM      6  C   UNL d   1      16.412  -3.982   7.644 -0.22 +0.00    -0.021 A 
DOCKED: ATOM      7  C   UNL d   1      16.076  -2.709   8.035 -0.23 +0.01    -0.025 A 
DOCKED: ATOM      8  C   UNL d   1      16.905  -2.403   9.097 -0.18 -0.01    +0.066 A 
DOCKED: ATOM      9  C   UNL d   1      15.006  -1.853   7.430 -0.29 -0.03    +0.051 C 
DOCKED: ATOM     10  C   UNL d   1      17.646  -0.823  10.857 -0.17 -0.00    +0.066 A 
DOCKED: ATOM     11  C   UNL d   1      17.700   0.449  11.432 -0.21 -0.00    -0.021 A 
DOCKED: ATOM     12  C   UNL d   1      18.577   0.359  12.495 -0.16 +0.00    +0.000 A 
DOCKED: ATOM     13  C   UNL d   1      19.023  -0.974  12.508 -0.11 -0.00    +0.070 A 
DOCKED: ATOM     14  C   UNL d   1      17.004   1.705  10.951 -0.32 +0.01    +0.052 C 
DOCKED: ATOM     15  C   UNL d   1      20.388  -2.809  13.494 -0.15 -0.00    +0.066 A 
DOCKED: ATOM     16  C   UNL d   1      21.159  -3.342  14.520 -0.27 +0.00    -0.021 A 
DOCKED: ATOM     17  C   UNL d   1      21.485  -4.630  14.148 -0.29 -0.00    +0.000 A 
DOCKED: ATOM     18  C   UNL d   1      20.908  -4.852  12.899 -0.19 +0.00    +0.070 A 
DOCKED: ATOM     19  C   UNL d   1      21.595  -2.662  15.789 -0.26 -0.01    +0.052 C 
DOCKED: ATOM     20  C   UNL d   1      20.388  -6.301  10.928 -0.13 +0.00    +0.066 A 
DOCKED: ATOM     21  C   UNL d   1      20.665  -7.410  10.116 -0.23 -0.00    -0.025 A 
DOCKED: ATOM     22  C   UNL d   1      19.814  -7.308   9.035 -0.22 +0.00    -0.021 A 
DOCKED: ATOM     23  C   UNL d   1      19.060  -6.144   9.225 -0.15 +0.00    +0.066 A 
DOCKED: ATOM     24  C   UNL d   1      21.677  -8.510  10.336 -0.45 +0.00    +0.051 C 
DOCKED: ATOM     25  N   UNL d   1      17.722  -3.440   9.372 -0.11 +0.01    -0.248 N 
DOCKED: ATOM     26  N   UNL d   1      18.462  -1.693  11.505 -0.07 +0.00    -0.248 N 
DOCKED: ATOM     27  N   UNL d   1      20.197  -3.749  12.517 -0.08 +0.00    -0.248 N 
DOCKED: ATOM     28  N   UNL d   1      19.446  -5.510  10.359 -0.11 -0.01    -0.248 N 
DOCKED: ATOM     29 FE   UNL d   1      18.956  -3.603  10.933 -0.04 +0.00    +0.000 Fe
DOCKED: ENDROOT
DOCKED: BRANCH   6  30
DOCKED: ATOM     30  C   UNL d   1      15.772  -4.754   6.542 -0.24 +0.00    +0.052 C 
DOCKED: BRANCH  30  31
DOCKED: ATOM     31  C   UNL d   1      14.893  -5.868   7.101 -0.23 +0.03    +0.115 C 
DOCKED: BRANCH  31  32
DOCKED: ATOM     32  C   UNL d   1      13.464  -5.673   6.678 -0.34 +0.07    +0.139 C 
DOCKED: ATOM     33  O   UNL d   1      12.840  -6.583   6.150 -0.49 -0.48    -0.650 OA
DOCKED: BRANCH  32  34
DOCKED: ATOM     34  O   UNL d   1      12.856  -4.491   6.878 -0.53 -0.33    -0.776 OA
DOCKED: ATOM     35  H   UNL d   1      13.153  -3.720   6.375 +0.09 -0.04    +0.167 HD
DOCKED: ENDBRANCH  32  34
DOCKED: ENDBRANCH  31  32
DOCKED: ENDBRANCH  30  31
DOCKED: ENDBRANCH   6  30
DOCKED: BRANCH  22  36
DOCKED: ATOM     36  C   UNL d   1      19.766  -8.251   7.862 -0.34 -0.00    +0.052 C 
DOCKED: BRANCH  36  37
DOCKED: ATOM     37  C   UNL d   1      18.332  -8.387   7.372 -0.22 +0.01    +0.115 C 
DOCKED: BRANCH  37  38
DOCKED: ATOM     38  C   UNL d   1      18.270  -8.347   5.871 -0.35 +0.01    +0.139 C 
DOCKED: ATOM     39  O   UNL d   1      18.001  -9.352   5.230 -0.05 -0.04    -0.650 OA
DOCKED: BRANCH  38  40
DOCKED: ATOM     40  O   UNL d   1      18.516  -7.197   5.219 -0.52 -0.12    -0.776 OA
DOCKED: ATOM     41  H   UNL d   1      17.770  -6.666   4.905 -0.43 +0.00    +0.167 HD
DOCKED: ENDBRANCH  38  40
DOCKED: ENDBRANCH  37  38
DOCKED: ENDBRANCH  36  37
DOCKED: ENDBRANCH  22  36
DOCKED: BRANCH  12  42
DOCKED: ATOM     42  C   UNL d   1      18.949   1.493  13.396 -0.19 +0.00    +0.004 C 
DOCKED: ATOM     43  C   UNL d   1      20.231   1.827  13.590 -0.22 +0.00    +0.012 C 
DOCKED: ENDBRANCH  12  42
DOCKED: BRANCH  17  44
DOCKED: ATOM     44  C   UNL d   1      22.279  -5.593  14.944 -0.52 -0.00    +0.004 C 
DOCKED: ATOM     45  C   UNL d   1      21.801  -6.095  16.087 -0.58 +0.00    +0.012 C 
DOCKED: ENDBRANCH  17  44
DOCKED: TORSDOF 10
DOCKED: TER
DOCKED: ENDMDL
________________________________________________________________________________


	BEGINNING GENETIC ALGORITHM DOCKING 6 of 100
Run: 6 Seed: 2070546849 1720148715 [ Run 6 of 100 GA/GALS ]
Beginning LAMARCKIAN GENETIC ALGORITHM (LGA), with a maximum of 25000000 energy evaluations.

Final-Value: -18.514


	FINAL GENETIC ALGORITHM DOCKED STATE
	_______________________________________________


Detailed state:  trans 8.262 12.886 29.391 quatxyzw 0.601317 0.020668 -0.770734 -0.209664 center -0.174 -0.001 -0.047 ntor 10 128.5124 -40.3574 67.9422 -135.0298 103.0024 129.3823 -21.0909 63.6104 -143.7607 169.0525
State:	  8.262  12.886  29.391   0.615  0.021 -0.788 -155.795    128.51  -40.36   67.94 -135.03  103.00  129.38  -21.09   63.61 -143.76  169.05

DOCKED: MODEL        6
DOCKED: USER    Run = 6
DOCKED: USER    DPF = D:/Protein_go_brrr/autodock/final/1A3N/heme_Fe/dock.dpf
DOCKED: USER  
DOCKED: USER    Estimated Free Energy of Binding    =  -13.84 kcal/mol  [=(1)+(2)+(3)-(4)]
DOCKED: USER    Estimated Inhibition Constant, Ki   =   71.19 pM (picomolar)  [Temperature = 298.15 K]
DOCKED: USER    
DOCKED: USER    (1) Final Intermolecular Energy     =  -16.83 kcal/mol
DOCKED: USER        vdW + Hbond + desolv Energy     =  -14.13 kcal/mol
DOCKED: USER        Electrostatic Energy            =   -2.70 kcal/mol
DOCKED: USER    (2) Final Total Internal Energy     =   -1.69 kcal/mol
DOCKED: USER    (3) Torsional Free Energy           =   +2.98 kcal/mol
DOCKED: USER    (4) Unbound System's Energy  [=(2)] =   -1.69 kcal/mol
DOCKED: USER    
DOCKED: USER    
DOCKED: USER    NEWDPF move heme_Fe_opt.pdbqt
DOCKED: USER    NEWDPF about -0.174000 -0.001000 -0.047000
DOCKED: USER    NEWDPF tran0 8.262244 12.885832 29.391071
DOCKED: USER    NEWDPF quaternion0 0.601317 0.020668 -0.770734 -0.209664
DOCKED: USER    NEWDPF axisangle0 0.614986 0.021138 -0.788254 -155.794674
DOCKED: USER    NEWDPF quat0 0.614986 0.021138 -0.788254 -155.794674
DOCKED: USER    NEWDPF dihe0 128.51 -40.36 67.94 -135.03 103.00 129.38 -21.09 63.61 -143.76 169.05 
DOCKED: USER  keepresnum = 1 
DOCKED: USER  
DOCKED: REMARK  10 active torsions:
DOCKED: REMARK  status: ('A' for Active; 'I' for Inactive)
DOCKED: REMARK    1  A    between atoms: C_6  and  C_10 
DOCKED: REMARK    2  A    between atoms: C_10  and  C_11 
DOCKED: REMARK    3  A    between atoms: C_11  and  C_12 
DOCKED: REMARK    4  A    between atoms: C_12  and  O_14 
DOCKED: REMARK    5  A    between atoms: C_17  and  C_20 
DOCKED: REMARK    6  A    between atoms: C_24  and  C_27 
DOCKED: REMARK    7  A    between atoms: C_31  and  C_34 
DOCKED: REMARK    8  A    between atoms: C_34  and  C_35 
DOCKED: REMARK    9  A    between atoms: C_35  and  C_36 
DOCKED: REMARK   10  A    between atoms: C_36  and  O_38 
DOCKED: USER                              x       y       z     vdW  Elec       q    Type
DOCKED: USER                           _______ _______ _______ _____ _____    ______ ____
DOCKED: ROOT
DOCKED: ATOM      1  C   UNL d   1       8.127  13.380  31.378 -0.28 +0.02    +0.064 C 
DOCKED: ATOM      2  C   UNL d   1       6.458  15.375  27.176 -0.44 +0.01    +0.064 A 
DOCKED: ATOM      3  C   UNL d   1       7.437  11.254  24.911 -0.33 +0.00    +0.064 C 
DOCKED: ATOM      4  C   UNL d   1       9.154   9.339  28.945 -0.45 +0.01    +0.064 C 
DOCKED: ATOM      5  C   UNL d   1       7.645  14.352  30.388 -0.29 +0.02    +0.066 A 
DOCKED: ATOM      6  C   UNL d   1       7.366  15.682  30.656 -0.31 -0.01    -0.021 A 
DOCKED: ATOM      7  C   UNL d   1       6.899  16.234  29.489 -0.33 -0.01    -0.025 A 
DOCKED: ATOM      8  C   UNL d   1       6.911  15.219  28.552 -0.39 +0.01    +0.066 A 
DOCKED: ATOM      9  C   UNL d   1       6.486  17.660  29.291 -0.16 +0.01    +0.051 C 
DOCKED: ATOM     10  C   UNL d   1       6.513  14.428  26.237 -0.37 +0.01    +0.066 A 
DOCKED: ATOM     11  C   UNL d   1       5.967  14.571  24.959 -0.41 -0.00    -0.021 A 
DOCKED: ATOM     12  C   UNL d   1       6.221  13.390  24.292 -0.38 +0.00    +0.000 A 
DOCKED: ATOM     13  C   UNL d   1       6.908  12.576  25.209 -0.34 +0.00    +0.070 A 
DOCKED: ATOM     14  C   UNL d   1       5.181  15.750  24.423 -0.56 +0.00    +0.052 C 
DOCKED: ATOM     15  C   UNL d   1       8.054  10.446  25.805 -0.34 +0.01    +0.066 A 
DOCKED: ATOM     16  C   UNL d   1       8.633   9.232  25.458 -0.42 -0.00    -0.021 A 
DOCKED: ATOM     17  C   UNL d   1       9.126   8.676  26.620 -0.43 +0.00    +0.000 A 
DOCKED: ATOM     18  C   UNL d   1       8.831   9.564  27.653 -0.38 +0.01    +0.070 A 
DOCKED: ATOM     19  C   UNL d   1       8.699   8.604  24.091 -0.61 +0.00    +0.052 C 
DOCKED: ATOM     20  C   UNL d   1       8.916  10.277  30.048 -0.37 +0.02    +0.066 A 
DOCKED: ATOM     21  C   UNL d   1       9.060   9.979  31.410 -0.39 -0.01    -0.025 A 
DOCKED: ATOM     22  C   UNL d   1       8.775  11.149  32.085 -0.32 -0.01    -0.021 A 
DOCKED: ATOM     23  C   UNL d   1       8.463  12.107  31.113 -0.24 +0.02    +0.066 A 
DOCKED: ATOM     24  C   UNL d   1       9.442   8.666  32.054 -0.47 +0.02    +0.051 C 
DOCKED: ATOM     25  N   UNL d   1       7.374  14.077  29.100 -0.23 -0.05    -0.248 N 
DOCKED: ATOM     26  N   UNL d   1       7.079  13.205  26.398 -0.23 -0.02    -0.248 N 
DOCKED: ATOM     27  N   UNL d   1       8.211  10.672  27.147 -0.23 -0.03    -0.248 N 
DOCKED: ATOM     28  N   UNL d   1       8.507  11.558  29.875 -0.21 -0.06    -0.248 N 
DOCKED: ATOM     29 FE   UNL d   1       7.794  12.379  28.137 -0.08 +0.00    +0.000 Fe
DOCKED: ENDROOT
DOCKED: BRANCH   6  30
DOCKED: ATOM     30  C   UNL d   1       7.553  16.399  31.949 -0.27 +0.02    +0.052 C 
DOCKED: BRANCH  30  31
DOCKED: ATOM     31  C   UNL d   1       6.830  15.675  33.078 -0.10 +0.12    +0.115 C 
DOCKED: BRANCH  31  32
DOCKED: ATOM     32  C   UNL d   1       7.409  16.065  34.410 -0.03 +0.18    +0.139 C 
DOCKED: ATOM     33  O   UNL d   1       6.825  16.858  35.136 -0.56 -1.14    -0.650 OA
DOCKED: BRANCH  32  34
DOCKED: ATOM     34  O   UNL d   1       8.580  15.545  34.815 +0.01 -0.64    -0.776 OA
DOCKED: ATOM     35  H   UNL d   1       8.697  14.584  34.798 +0.04 +0.14    +0.167 HD
DOCKED: ENDBRANCH  32  34
DOCKED: ENDBRANCH  31  32
DOCKED: ENDBRANCH  30  31
DOCKED: ENDBRANCH   6  30
DOCKED: BRANCH  22  36
DOCKED: ATOM     36  C   UNL d   1       8.756  11.319  33.581 -0.28 +0.03    +0.052 C 
DOCKED: BRANCH  36  37
DOCKED: ATOM     37  C   UNL d   1       7.341  11.116  34.103 -0.32 +0.06    +0.115 C 
DOCKED: BRANCH  37  38
DOCKED: ATOM     38  C   UNL d   1       6.819  12.371  34.745 -0.23 +0.13    +0.139 C 
DOCKED: ATOM     39  O   UNL d   1       5.729  12.826  34.431 -0.52 -1.03    -0.650 OA
DOCKED: BRANCH  38  40
DOCKED: ATOM     40  O   UNL d   1       7.556  13.007  35.673 +0.08 -0.78    -0.776 OA
DOCKED: ATOM     41  H   UNL d   1       7.591  13.973  35.664 +0.03 +0.21    +0.167 HD
DOCKED: ENDBRANCH  38  40
DOCKED: ENDBRANCH  37  38
DOCKED: ENDBRANCH  36  37
DOCKED: ENDBRANCH  22  36
DOCKED: BRANCH  12  42
DOCKED: ATOM     42  C   UNL d   1       5.803  13.094  22.887 -0.49 +0.00    +0.004 C 
DOCKED: ATOM     43  C   UNL d   1       6.713  12.892  21.925 -0.52 +0.00    +0.012 C 
DOCKED: ENDBRANCH  12  42
DOCKED: BRANCH  17  44
DOCKED: ATOM     44  C   UNL d   1       9.849   7.390  26.733 -0.31 +0.00    +0.004 C 
DOCKED: ATOM     45  C   UNL d   1       9.184   6.231  26.772 -0.66 +0.00    +0.012 C 
DOCKED: ENDBRANCH  17  44
DOCKED: TORSDOF 10
DOCKED: TER
DOCKED: ENDMDL
________________________________________________________________________________


	BEGINNING GENETIC ALGORITHM DOCKING 7 of 100
Run: 7 Seed: 1293621171 1404789776 [ Run 7 of 100 GA/GALS ]
Beginning LAMARCKIAN GENETIC ALGORITHM (LGA), with a maximum of 25000000 energy evaluations.

Final-Value: -17.175


	FINAL GENETIC ALGORITHM DOCKED STATE
	_______________________________________________


Detailed state:  trans 7.193 13.032 30.543 quatxyzw -0.273269 0.640002 -0.022216 -0.717794 center -0.174 -0.001 -0.047 ntor 10 -82.0380 -55.9412 69.1772 -124.6527 -149.1581 -180.0000 -109.3099 54.8149 154.6394 163.9016
State:	  7.193  13.032  30.543  -0.392  0.919 -0.032 -88.255    -82.04  -55.94   69.18 -124.65 -149.16 -180.00 -109.31   54.81  154.64  163.90

DOCKED: MODEL        7
DOCKED: USER    Run = 7
DOCKED: USER    DPF = D:/Protein_go_brrr/autodock/final/1A3N/heme_Fe/dock.dpf
DOCKED: USER  
DOCKED: USER    Estimated Free Energy of Binding    =  -12.35 kcal/mol  [=(1)+(2)+(3)-(4)]
DOCKED: USER    Estimated Inhibition Constant, Ki   =  887.43 pM (picomolar)  [Temperature = 298.15 K]
DOCKED: USER    
DOCKED: USER    (1) Final Intermolecular Energy     =  -15.33 kcal/mol
DOCKED: USER        vdW + Hbond + desolv Energy     =  -13.23 kcal/mol
DOCKED: USER        Electrostatic Energy            =   -2.11 kcal/mol
DOCKED: USER    (2) Final Total Internal Energy     =   -1.84 kcal/mol
DOCKED: USER    (3) Torsional Free Energy           =   +2.98 kcal/mol
DOCKED: USER    (4) Unbound System's Energy  [=(2)] =   -1.84 kcal/mol
DOCKED: USER    
DOCKED: USER    
DOCKED: USER    NEWDPF move heme_Fe_opt.pdbqt
DOCKED: USER    NEWDPF about -0.174000 -0.001000 -0.047000
DOCKED: USER    NEWDPF tran0 7.193133 13.032258 30.542578
DOCKED: USER    NEWDPF quaternion0 -0.273269 0.640002 -0.022216 -0.717794
DOCKED: USER    NEWDPF axisangle0 -0.392483 0.919205 -0.031908 -88.254642
DOCKED: USER    NEWDPF quat0 -0.392483 0.919205 -0.031908 -88.254642
DOCKED: USER    NEWDPF dihe0 -82.04 -55.94 69.18 -124.65 -149.16 -180.00 -109.31 54.81 154.64 163.90 
DOCKED: USER  keepresnum = 1 
DOCKED: USER  
DOCKED: REMARK  10 active torsions:
DOCKED: REMARK  status: ('A' for Active; 'I' for Inactive)
DOCKED: REMARK    1  A    between atoms: C_6  and  C_10 
DOCKED: REMARK    2  A    between atoms: C_10  and  C_11 
DOCKED: REMARK    3  A    between atoms: C_11  and  C_12 
DOCKED: REMARK    4  A    between atoms: C_12  and  O_14 
DOCKED: REMARK    5  A    between atoms: C_17  and  C_20 
DOCKED: REMARK    6  A    between atoms: C_24  and  C_27 
DOCKED: REMARK    7  A    between atoms: C_31  and  C_34 
DOCKED: REMARK    8  A    between atoms: C_34  and  C_35 
DOCKED: REMARK    9  A    between atoms: C_35  and  C_36 
DOCKED: REMARK   10  A    between atoms: C_36  and  O_38 
DOCKED: USER                              x       y       z     vdW  Elec       q    Type
DOCKED: USER                           _______ _______ _______ _____ _____    ______ ____
DOCKED: ROOT
DOCKED: ATOM      1  C   UNL d   1       7.351  13.932  32.380 -0.29 +0.04    +0.064 C 
DOCKED: ATOM      2  C   UNL d   1       8.884   9.642  30.462 -0.35 +0.02    +0.064 A 
DOCKED: ATOM      3  C   UNL d   1       7.981  11.363  26.070 -0.38 +0.00    +0.064 C 
DOCKED: ATOM      4  C   UNL d   1       6.394  15.483  27.911 -0.50 +0.01    +0.064 C 
DOCKED: ATOM      5  C   UNL d   1       7.788  12.535  32.252 -0.16 +0.03    +0.066 A 
DOCKED: ATOM      6  C   UNL d   1       8.033  11.682  33.316 -0.27 -0.01    -0.021 A 
DOCKED: ATOM      7  C   UNL d   1       8.463  10.492  32.782 -0.35 -0.01    -0.025 A 
DOCKED: ATOM      8  C   UNL d   1       8.462  10.664  31.412 -0.32 +0.02    +0.066 A 
DOCKED: ATOM      9  C   UNL d   1       8.831   9.261  33.552 -0.43 +0.02    +0.051 C 
DOCKED: ATOM     10  C   UNL d   1       8.839   9.762  29.134 -0.39 +0.01    +0.066 A 
DOCKED: ATOM     11  C   UNL d   1       9.357   8.811  28.252 -0.42 -0.00    -0.021 A 
DOCKED: ATOM     12  C   UNL d   1       9.124   9.291  26.979 -0.43 +0.00    +0.000 A 
DOCKED: ATOM     13  C   UNL d   1       8.477  10.527  27.152 -0.34 +0.01    +0.070 A 
DOCKED: ATOM     14  C   UNL d   1      10.099   7.538  28.605 -0.36 +0.01    +0.052 C 
DOCKED: ATOM     15  C   UNL d   1       7.404  12.577  26.229 -0.35 +0.00    +0.066 A 
DOCKED: ATOM     16  C   UNL d   1       6.853  13.300  25.179 -0.38 -0.00    -0.021 A 
DOCKED: ATOM     17  C   UNL d   1       6.398  14.490  25.707 -0.43 +0.00    +0.000 A 
DOCKED: ATOM     18  C   UNL d   1       6.686  14.468  27.069 -0.37 +0.01    +0.070 A 
DOCKED: ATOM     19  C   UNL d   1       6.779  12.900  23.729 -0.41 +0.00    +0.052 C 
DOCKED: ATOM     20  C   UNL d   1       6.626  15.470  29.360 -0.39 +0.01    +0.066 A 
DOCKED: ATOM     21  C   UNL d   1       6.516  16.581  30.208 -0.34 -0.01    -0.025 A 
DOCKED: ATOM     22  C   UNL d   1       6.780  16.113  31.479 -0.29 -0.01    -0.021 A 
DOCKED: ATOM     23  C   UNL d   1       7.047  14.744  31.356 -0.29 +0.03    +0.066 A 
DOCKED: ATOM     24  C   UNL d   1       6.184  18.011  29.851 -0.37 +0.01    +0.051 C 
DOCKED: ATOM     25  N   UNL d   1       8.042  11.905  31.092 +0.15 -0.08    -0.248 N 
DOCKED: ATOM     26  N   UNL d   1       8.311  10.819  28.465 -0.24 -0.04    -0.248 N 
DOCKED: ATOM     27  N   UNL d   1       7.265  13.274  27.400 -0.23 -0.02    -0.248 N 
DOCKED: ATOM     28  N   UNL d   1       6.995  14.367  30.055 -0.18 -0.07    -0.248 N 
DOCKED: ATOM     29 FE   UNL d   1       7.652  12.595  29.259 -0.08 +0.00    +0.000 Fe
DOCKED: ENDROOT
DOCKED: BRANCH   6  30
DOCKED: ATOM     30  C   UNL d   1       7.850  11.974  34.766 -0.21 +0.04    +0.052 C 
DOCKED: BRANCH  30  31
DOCKED: ATOM     31  C   UNL d   1       9.186  11.930  35.499 -0.15 +0.09    +0.115 C 
DOCKED: BRANCH  31  32
DOCKED: ATOM     32  C   UNL d   1      10.036  13.108  35.115 -0.17 +0.12    +0.139 C 
DOCKED: ATOM     33  O   UNL d   1      11.256  13.019  35.102 -0.54 -0.99    -0.650 OA
DOCKED: BRANCH  32  34
DOCKED: ATOM     34  O   UNL d   1       9.460  14.276  34.780 +0.06 -0.56    -0.776 OA
DOCKED: ATOM     35  H   UNL d   1       9.391  14.973  35.447 +0.04 +0.12    +0.167 HD
DOCKED: ENDBRANCH  32  34
DOCKED: ENDBRANCH  31  32
DOCKED: ENDBRANCH  30  31
DOCKED: ENDBRANCH   6  30
DOCKED: BRANCH  22  36
DOCKED: ATOM     36  C   UNL d   1       6.822  16.947  32.732 -0.18 +0.04    +0.052 C 
DOCKED: BRANCH  36  37
DOCKED: ATOM     37  C   UNL d   1       8.266  17.284  33.077 -0.17 +0.06    +0.115 C 
DOCKED: BRANCH  37  38
DOCKED: ATOM     38  C   UNL d   1       8.591  16.879  34.486 -0.12 +0.09    +0.139 C 
DOCKED: ATOM     39  O   UNL d   1       9.707  17.066  34.949 +0.00 -0.30    -0.650 OA
DOCKED: BRANCH  38  40
DOCKED: ATOM     40  O   UNL d   1       7.650  16.299  35.253 -0.40 -1.01    -0.776 OA
DOCKED: ATOM     41  H   UNL d   1       7.832  15.434  35.647 +0.02 +0.22    +0.167 HD
DOCKED: ENDBRANCH  38  40
DOCKED: ENDBRANCH  37  38
DOCKED: ENDBRANCH  36  37
DOCKED: ENDBRANCH  22  36
DOCKED: BRANCH  12  42
DOCKED: ATOM     42  C   UNL d   1       9.524   8.597  25.716 -0.51 +0.00    +0.004 C 
DOCKED: ATOM     43  C   UNL d   1       8.603   8.183  24.836 -0.57 +0.00    +0.012 C 
DOCKED: ENDBRANCH  12  42
DOCKED: BRANCH  17  44
DOCKED: ATOM     44  C   UNL d   1       5.713  15.569  24.960 -0.56 +0.00    +0.004 C 
DOCKED: ATOM     45  C   UNL d   1       6.382  16.328  24.085 -0.56 +0.00    +0.012 C 
DOCKED: ENDBRANCH  17  44
DOCKED: TORSDOF 10
DOCKED: TER
DOCKED: ENDMDL
________________________________________________________________________________


	BEGINNING GENETIC ALGORITHM DOCKING 8 of 100
Run: 8 Seed: 979801769 599910814 [ Run 8 of 100 GA/GALS ]
Beginning LAMARCKIAN GENETIC ALGORITHM (LGA), with a maximum of 25000000 energy evaluations.

Final-Value: -18.004


	FINAL GENETIC ALGORITHM DOCKED STATE
	_______________________________________________


Detailed state:  trans 23.544 -7.408 32.248 quatxyzw 0.003909 -0.650390 -0.157941 0.742989 center -0.174 -0.001 -0.047 ntor 10 76.7759 76.6572 78.2769 -114.3451 173.7595 -174.6347 -59.7361 81.7808 -176.4976 -165.8431
State:	 23.544  -7.408  32.248   0.006 -0.972 -0.236 84.027     76.78   76.66   78.28 -114.35  173.76 -174.63  -59.74   81.78 -176.50 -165.84

DOCKED: MODEL        8
DOCKED: USER    Run = 8
DOCKED: USER    DPF = D:/Protein_go_brrr/autodock/final/1A3N/heme_Fe/dock.dpf
DOCKED: USER  
DOCKED: USER    Estimated Free Energy of Binding    =  -13.08 kcal/mol  [=(1)+(2)+(3)-(4)]
DOCKED: USER    Estimated Inhibition Constant, Ki   =  258.08 pM (picomolar)  [Temperature = 298.15 K]
DOCKED: USER    
DOCKED: USER    (1) Final Intermolecular Energy     =  -16.06 kcal/mol
DOCKED: USER        vdW + Hbond + desolv Energy     =  -13.49 kcal/mol
DOCKED: USER        Electrostatic Energy            =   -2.58 kcal/mol
DOCKED: USER    (2) Final Total Internal Energy     =   -1.94 kcal/mol
DOCKED: USER    (3) Torsional Free Energy           =   +2.98 kcal/mol
DOCKED: USER    (4) Unbound System's Energy  [=(2)] =   -1.94 kcal/mol
DOCKED: USER    
DOCKED: USER    
DOCKED: USER    NEWDPF move heme_Fe_opt.pdbqt
DOCKED: USER    NEWDPF about -0.174000 -0.001000 -0.047000
DOCKED: USER    NEWDPF tran0 23.543612 -7.408374 32.247852
DOCKED: USER    NEWDPF quaternion0 0.003909 -0.650390 -0.157941 0.742989
DOCKED: USER    NEWDPF axisangle0 0.005840 -0.971741 -0.235979 84.026748
DOCKED: USER    NEWDPF quat0 0.005840 -0.971741 -0.235979 84.026748
DOCKED: USER    NEWDPF dihe0 76.78 76.66 78.28 -114.35 173.76 -174.63 -59.74 81.78 -176.50 -165.84 
DOCKED: USER  keepresnum = 1 
DOCKED: USER  
DOCKED: REMARK  10 active torsions:
DOCKED: REMARK  status: ('A' for Active; 'I' for Inactive)
DOCKED: REMARK    1  A    between atoms: C_6  and  C_10 
DOCKED: REMARK    2  A    between atoms: C_10  and  C_11 
DOCKED: REMARK    3  A    between atoms: C_11  and  C_12 
DOCKED: REMARK    4  A    between atoms: C_12  and  O_14 
DOCKED: REMARK    5  A    between atoms: C_17  and  C_20 
DOCKED: REMARK    6  A    between atoms: C_24  and  C_27 
DOCKED: REMARK    7  A    between atoms: C_31  and  C_34 
DOCKED: REMARK    8  A    between atoms: C_34  and  C_35 
DOCKED: REMARK    9  A    between atoms: C_35  and  C_36 
DOCKED: REMARK   10  A    between atoms: C_36  and  O_38 
DOCKED: USER                              x       y       z     vdW  Elec       q    Type
DOCKED: USER                           _______ _______ _______ _____ _____    ______ ____
DOCKED: ROOT
DOCKED: ATOM      1  C   UNL d   1      23.865  -7.807  34.235 -0.33 +0.02    +0.064 C 
DOCKED: ATOM      2  C   UNL d   1      24.855 -10.168  30.007 -0.43 +0.00    +0.064 A 
DOCKED: ATOM      3  C   UNL d   1      23.981  -6.099  27.610 -0.43 +0.00    +0.064 C 
DOCKED: ATOM      4  C   UNL d   1      22.917  -3.822  31.681 -0.46 +0.01    +0.064 C 
DOCKED: ATOM      5  C   UNL d   1      24.144  -8.871  33.260 -0.31 +0.01    +0.066 A 
DOCKED: ATOM      6  C   UNL d   1      24.335 -10.205  33.579 -0.28 -0.00    -0.021 A 
DOCKED: ATOM      7  C   UNL d   1      24.614 -10.859  32.405 -0.21 -0.00    -0.025 A 
DOCKED: ATOM      8  C   UNL d   1      24.581  -9.898  31.413 -0.37 +0.01    +0.066 A 
DOCKED: ATOM      9  C   UNL d   1      24.875 -12.327  32.252 -0.00 +0.00    +0.051 C 
DOCKED: ATOM     10  C   UNL d   1      24.774  -9.271  29.023 -0.43 +0.00    +0.066 A 
DOCKED: ATOM     11  C   UNL d   1      25.154  -9.532  27.704 -0.49 -0.00    -0.021 A 
DOCKED: ATOM     12  C   UNL d   1      24.927  -8.369  26.996 -0.41 +0.00    +0.000 A 
DOCKED: ATOM     13  C   UNL d   1      24.424  -7.447  27.930 -0.36 +0.00    +0.070 A 
DOCKED: ATOM     14  C   UNL d   1      25.767 -10.806  27.159 -0.57 -0.00    +0.052 C 
DOCKED: ATOM     15  C   UNL d   1      23.545  -5.191  28.515 -0.38 +0.00    +0.066 A 
DOCKED: ATOM     16  C   UNL d   1      23.037  -3.949  28.157 -0.44 -0.00    -0.021 A 
DOCKED: ATOM     17  C   UNL d   1      22.732  -3.289  29.330 -0.47 +0.00    +0.000 A 
DOCKED: ATOM     18  C   UNL d   1      23.066  -4.144  30.377 -0.39 +0.01    +0.070 A 
DOCKED: ATOM     19  C   UNL d   1      22.867  -3.391  26.770 -0.57 +0.00    +0.052 C 
DOCKED: ATOM     20  C   UNL d   1      23.199  -4.719  32.808 -0.35 +0.01    +0.066 A 
DOCKED: ATOM     21  C   UNL d   1      23.241  -4.338  34.156 -0.34 -0.00    -0.025 A 
DOCKED: ATOM     22  C   UNL d   1      23.500  -5.491  34.867 -0.25 -0.00    -0.021 A 
DOCKED: ATOM     23  C   UNL d   1      23.612  -6.524  33.929 -0.26 +0.01    +0.066 A 
DOCKED: ATOM     24  C   UNL d   1      23.052  -2.963  34.753 -0.41 +0.01    +0.051 C 
DOCKED: ATOM     25  N   UNL d   1      24.285  -8.691  31.935 -0.22 -0.03    -0.248 N 
DOCKED: ATOM     26  N   UNL d   1      24.339  -7.994  29.168 -0.25 -0.01    -0.248 N 
DOCKED: ATOM     27  N   UNL d   1      23.525  -5.331  29.876 -0.25 -0.01    -0.248 N 
DOCKED: ATOM     28  N   UNL d   1      23.473  -6.040  32.671 -0.22 -0.03    -0.248 N 
DOCKED: ATOM     29 FE   UNL d   1      23.905  -7.015  30.920 -0.09 -0.00    +0.000 Fe
DOCKED: ENDROOT
DOCKED: BRANCH   6  30
DOCKED: ATOM     30  C   UNL d   1      24.238 -10.833  34.927 -0.23 +0.01    +0.052 C 
DOCKED: BRANCH  30  31
DOCKED: ATOM     31  C   UNL d   1      25.573 -10.750  35.660 -0.08 +0.06    +0.115 C 
DOCKED: BRANCH  31  32
DOCKED: ATOM     32  C   UNL d   1      25.421  -9.986  36.945 -0.12 +0.11    +0.139 C 
DOCKED: ATOM     33  O   UNL d   1      26.350  -9.905  37.736 -0.05 -0.91    -0.650 OA
DOCKED: BRANCH  32  34
DOCKED: ATOM     34  O   UNL d   1      24.257  -9.381  37.238 +0.02 -0.40    -0.776 OA
DOCKED: ATOM     35  H   UNL d   1      24.185  -8.422  37.131 +0.04 +0.09    +0.167 HD
DOCKED: ENDBRANCH  32  34
DOCKED: ENDBRANCH  31  32
DOCKED: ENDBRANCH  30  31
DOCKED: ENDBRANCH   6  30
DOCKED: BRANCH  22  36
DOCKED: ATOM     36  C   UNL d   1      23.678  -5.583  36.360 -0.22 +0.02    +0.052 C 
DOCKED: BRANCH  36  37
DOCKED: ATOM     37  C   UNL d   1      24.972  -4.894  36.766 -0.20 +0.05    +0.115 C 
DOCKED: BRANCH  37  38
DOCKED: ATOM     38  C   UNL d   1      26.075  -5.895  36.966 -0.15 +0.14    +0.139 C 
DOCKED: ATOM     39  O   UNL d   1      27.167  -5.546  37.388 -0.17 -0.95    -0.650 OA
DOCKED: BRANCH  38  40
DOCKED: ATOM     40  O   UNL d   1      25.866  -7.191  36.675 -0.10 -1.10    -0.776 OA
DOCKED: ATOM     41  H   UNL d   1      25.721  -7.818  37.398 +0.03 +0.30    +0.167 HD
DOCKED: ENDBRANCH  38  40
DOCKED: ENDBRANCH  37  38
DOCKED: ENDBRANCH  36  37
DOCKED: ENDBRANCH  22  36
DOCKED: BRANCH  12  42
DOCKED: ATOM     42  C   UNL d   1      25.203  -8.188  25.537 -0.51 +0.00    +0.004 C 
DOCKED: ATOM     43  C   UNL d   1      24.249  -7.753  24.704 -0.57 +0.00    +0.012 C 
DOCKED: ENDBRANCH  12  42
DOCKED: BRANCH  17  44
DOCKED: ATOM     44  C   UNL d   1      22.141  -1.936  29.441 -0.59 +0.00    +0.004 C 
DOCKED: ATOM     45  C   UNL d   1      22.774  -0.869  28.942 -0.63 +0.00    +0.012 C 
DOCKED: ENDBRANCH  17  44
DOCKED: TORSDOF 10
DOCKED: TER
DOCKED: ENDMDL
________________________________________________________________________________


	BEGINNING GENETIC ALGORITHM DOCKING 9 of 100
Run: 9 Seed: 85587114 135381244 [ Run 9 of 100 GA/GALS ]
Beginning LAMARCKIAN GENETIC ALGORITHM (LGA), with a maximum of 25000000 energy evaluations.

Final-Value: -10.526


	FINAL GENETIC ALGORITHM DOCKED STATE
	_______________________________________________


Detailed state:  trans 14.666 -18.650 10.205 quatxyzw 0.746151 -0.132485 -0.619708 0.204127 center -0.174 -0.001 -0.047 ntor 10 82.1713 -34.6140 160.6443 -150.9922 154.0398 138.3711 -43.8214 63.7184 -164.3164 174.3355
State:	 14.666 -18.650  10.205   0.762 -0.135 -0.633 156.443     82.17  -34.61  160.64 -150.99  154.04  138.37  -43.82   63.72 -164.32  174.34

DOCKED: MODEL        9
DOCKED: USER    Run = 9
DOCKED: USER    DPF = D:/Protein_go_brrr/autodock/final/1A3N/heme_Fe/dock.dpf
DOCKED: USER  
DOCKED: USER    Estimated Free Energy of Binding    =   -5.52 kcal/mol  [=(1)+(2)+(3)-(4)]
DOCKED: USER    Estimated Inhibition Constant, Ki   =   89.43 uM (micromolar)  [Temperature = 298.15 K]
DOCKED: USER    
DOCKED: USER    (1) Final Intermolecular Energy     =   -8.51 kcal/mol
DOCKED: USER        vdW + Hbond + desolv Energy     =   -5.48 kcal/mol
DOCKED: USER        Electrostatic Energy            =   -3.03 kcal/mol
DOCKED: USER    (2) Final Total Internal Energy     =   -2.02 kcal/mol
DOCKED: USER    (3) Torsional Free Energy           =   +2.98 kcal/mol
DOCKED: USER    (4) Unbound System's Energy  [=(2)] =   -2.02 kcal/mol
DOCKED: USER    
DOCKED: USER    
DOCKED: USER    NEWDPF move heme_Fe_opt.pdbqt
DOCKED: USER    NEWDPF about -0.174000 -0.001000 -0.047000
DOCKED: USER    NEWDPF tran0 14.665718 -18.649844 10.204606
DOCKED: USER    NEWDPF quaternion0 0.746151 -0.132485 -0.619708 0.204127
DOCKED: USER    NEWDPF axisangle0 0.762200 -0.135335 -0.633037 156.443190
DOCKED: USER    NEWDPF quat0 0.762200 -0.135335 -0.633037 156.443190
DOCKED: USER    NEWDPF dihe0 82.17 -34.61 160.64 -150.99 154.04 138.37 -43.82 63.72 -164.32 174.34 
DOCKED: USER  keepresnum = 1 
DOCKED: USER  
DOCKED: REMARK  10 active torsions:
DOCKED: REMARK  status: ('A' for Active; 'I' for Inactive)
DOCKED: REMARK    1  A    between atoms: C_6  and  C_10 
DOCKED: REMARK    2  A    between atoms: C_10  and  C_11 
DOCKED: REMARK    3  A    between atoms: C_11  and  C_12 
DOCKED: REMARK    4  A    between atoms: C_12  and  O_14 
DOCKED: REMARK    5  A    between atoms: C_17  and  C_20 
DOCKED: REMARK    6  A    between atoms: C_24  and  C_27 
DOCKED: REMARK    7  A    between atoms: C_31  and  C_34 
DOCKED: REMARK    8  A    between atoms: C_34  and  C_35 
DOCKED: REMARK    9  A    between atoms: C_35  and  C_36 
DOCKED: REMARK   10  A    between atoms: C_36  and  O_38 
DOCKED: USER                              x       y       z     vdW  Elec       q    Type
DOCKED: USER                           _______ _______ _______ _____ _____    ______ ____
DOCKED: ROOT
DOCKED: ATOM      1  C   UNL d   1      13.839 -18.458  12.073 -0.10 +0.03    +0.064 C 
DOCKED: ATOM      2  C   UNL d   1      16.225 -15.416   8.994 -0.15 +0.01    +0.064 A 
DOCKED: ATOM      3  C   UNL d   1      15.534 -18.577   5.445 -0.29 +0.01    +0.064 C 
DOCKED: ATOM      4  C   UNL d   1      13.314 -21.583   8.432 -0.14 +0.02    +0.064 C 
DOCKED: ATOM      5  C   UNL d   1      14.648 -17.346  11.555 -0.10 +0.03    +0.066 A 
DOCKED: ATOM      6  C   UNL d   1      15.136 -16.300  12.320 -0.04 -0.01    -0.021 A 
DOCKED: ATOM      7  C   UNL d   1      15.795 -15.453  11.463 -0.06 -0.01    -0.025 A 
DOCKED: ATOM      8  C   UNL d   1      15.685 -16.017  10.207 -0.13 +0.02    +0.066 A 
DOCKED: ATOM      9  C   UNL d   1      16.504 -14.189  11.843 -0.06 +0.01    +0.051 C 
DOCKED: ATOM     10  C   UNL d   1      16.182 -15.966   7.779 -0.22 +0.01    +0.066 A 
DOCKED: ATOM     11  C   UNL d   1      16.607 -15.315   6.618 -0.21 -0.00    -0.021 A 
DOCKED: ATOM     12  C   UNL d   1      16.402 -16.200   5.578 -0.26 -0.00    +0.000 A 
DOCKED: ATOM     13  C   UNL d   1      15.851 -17.353   6.163 -0.28 +0.01    +0.070 A 
DOCKED: ATOM     14  C   UNL d   1      17.118 -13.894   6.496 -0.16 +0.00    +0.052 C 
DOCKED: ATOM     15  C   UNL d   1      14.955 -19.671   5.994 -0.01 +0.02    +0.066 A 
DOCKED: ATOM     16  C   UNL d   1      14.760 -20.857   5.298 -0.16 -0.01    -0.021 A 
DOCKED: ATOM     17  C   UNL d   1      14.117 -21.724   6.156 -0.14 +0.00    +0.000 A 
DOCKED: ATOM     18  C   UNL d   1      13.930 -21.044   7.357 -0.14 +0.03    +0.070 A 
DOCKED: ATOM     19  C   UNL d   1      15.140 -21.158   3.873 -0.13 +0.01    +0.052 C 
DOCKED: ATOM     20  C   UNL d   1      13.154 -20.920   9.732 -0.13 +0.02    +0.066 A 
DOCKED: ATOM     21  C   UNL d   1      12.350 -21.382  10.783 -0.07 -0.01    -0.025 A 
DOCKED: ATOM     22  C   UNL d   1      12.524 -20.483  11.815 -0.07 -0.01    -0.021 A 
DOCKED: ATOM     23  C   UNL d   1      13.419 -19.510  11.353 -0.11 +0.03    +0.066 A 
DOCKED: ATOM     24  C   UNL d   1      11.457 -22.600  10.823 -0.03 +0.02    +0.051 C 
DOCKED: ATOM     25  N   UNL d   1      14.994 -17.173  10.267 -0.12 -0.10    -0.248 N 
DOCKED: ATOM     26  N   UNL d   1      15.708 -17.208   7.503 -0.20 -0.05    -0.248 N 
DOCKED: ATOM     27  N   UNL d   1      14.484 -19.797   7.273 -0.03 -0.10    -0.248 N 
DOCKED: ATOM     28  N   UNL d   1      13.765 -19.757  10.066 -0.12 -0.11    -0.248 N 
DOCKED: ATOM     29 FE   UNL d   1      14.735 -18.484   8.784 -0.06 +0.00    +0.000 Fe
DOCKED: ENDROOT
DOCKED: BRANCH   6  30
DOCKED: ATOM     30  C   UNL d   1      15.003 -16.121  13.794 -0.03 +0.02    +0.052 C 
DOCKED: BRANCH  30  31
DOCKED: ATOM     31  C   UNL d   1      13.589 -15.682  14.159 -0.03 +0.08    +0.115 C 
DOCKED: BRANCH  31  32
DOCKED: ATOM     32  C   UNL d   1      13.094 -16.445  15.356 -0.05 +0.16    +0.139 C 
DOCKED: ATOM     33  O   UNL d   1      12.242 -15.966  16.092 -0.51 -1.14    -0.650 OA
DOCKED: BRANCH  32  34
DOCKED: ATOM     34  O   UNL d   1      13.586 -17.665  15.630 -0.00 -0.88    -0.776 OA
DOCKED: ATOM     35  H   UNL d   1      13.089 -18.445  15.349 +0.01 +0.17    +0.167 HD
DOCKED: ENDBRANCH  32  34
DOCKED: ENDBRANCH  31  32
DOCKED: ENDBRANCH  30  31
DOCKED: ENDBRANCH   6  30
DOCKED: BRANCH  22  36
DOCKED: ATOM     36  C   UNL d   1      11.831 -20.532  13.151 -0.04 +0.03    +0.052 C 
DOCKED: BRANCH  36  37
DOCKED: ATOM     37  C   UNL d   1      10.514 -19.775  13.074 -0.08 +0.09    +0.115 C 
DOCKED: BRANCH  37  38
DOCKED: ATOM     38  C   UNL d   1      10.517 -18.593  14.002 -0.07 +0.14    +0.139 C 
DOCKED: ATOM     39  O   UNL d   1      10.050 -17.520  13.649 -0.12 -1.03    -0.650 OA
DOCKED: BRANCH  38  40
DOCKED: ATOM     40  O   UNL d   1      11.041 -18.709  15.235 +0.02 -0.79    -0.776 OA
DOCKED: ATOM     41  H   UNL d   1      11.502 -17.952  15.623 +0.01 +0.23    +0.167 HD
DOCKED: ENDBRANCH  38  40
DOCKED: ENDBRANCH  37  38
DOCKED: ENDBRANCH  36  37
DOCKED: ENDBRANCH  22  36
DOCKED: BRANCH  12  42
DOCKED: ATOM     42  C   UNL d   1      16.708 -15.917   4.142 -0.34 -0.00    +0.004 C 
DOCKED: ATOM     43  C   UNL d   1      16.016 -16.510   3.160 -0.39 -0.00    +0.012 C 
DOCKED: ENDBRANCH  12  42
DOCKED: BRANCH  17  44
DOCKED: ATOM     44  C   UNL d   1      13.725 -23.119   5.853 -0.07 +0.00    +0.004 C 
DOCKED: ATOM     45  C   UNL d   1      12.481 -23.411   5.461 -0.06 +0.00    +0.012 C 
DOCKED: ENDBRANCH  17  44
DOCKED: TORSDOF 10
DOCKED: TER
DOCKED: ENDMDL
________________________________________________________________________________


	BEGINNING GENETIC ALGORITHM DOCKING 10 of 100
Run: 10 Seed: 1110079087 1213363991 [ Run 10 of 100 GA/GALS ]
Beginning LAMARCKIAN GENETIC ALGORITHM (LGA), with a maximum of 25000000 energy evaluations.

Final-Value: -18.032


	FINAL GENETIC ALGORITHM DOCKED STATE
	_______________________________________________


Detailed state:  trans 23.544 7.669 -4.511 quatxyzw -0.717807 0.282552 -0.603953 0.200397 center -0.174 -0.001 -0.047 ntor 10 -127.6486 -126.3210 65.7789 -141.2648 -121.6359 -89.2994 25.0161 70.9598 -54.4000 167.9442
State:	 23.544   7.669  -4.511  -0.733  0.288 -0.616 156.880   -127.65 -126.32   65.78 -141.26 -121.64  -89.30   25.02   70.96  -54.40  167.94

DOCKED: MODEL       10
DOCKED: USER    Run = 10
DOCKED: USER    DPF = D:/Protein_go_brrr/autodock/final/1A3N/heme_Fe/dock.dpf
DOCKED: USER  
DOCKED: USER    Estimated Free Energy of Binding    =  -13.77 kcal/mol  [=(1)+(2)+(3)-(4)]
DOCKED: USER    Estimated Inhibition Constant, Ki   =   80.92 pM (picomolar)  [Temperature = 298.15 K]
DOCKED: USER    
DOCKED: USER    (1) Final Intermolecular Energy     =  -16.75 kcal/mol
DOCKED: USER        vdW + Hbond + desolv Energy     =  -13.78 kcal/mol
DOCKED: USER        Electrostatic Energy            =   -2.97 kcal/mol
DOCKED: USER    (2) Final Total Internal Energy     =   -1.28 kcal/mol
DOCKED: USER    (3) Torsional Free Energy           =   +2.98 kcal/mol
DOCKED: USER    (4) Unbound System's Energy  [=(2)] =   -1.28 kcal/mol
DOCKED: USER    
DOCKED: USER    
DOCKED: USER    NEWDPF move heme_Fe_opt.pdbqt
DOCKED: USER    NEWDPF about -0.174000 -0.001000 -0.047000
DOCKED: USER    NEWDPF tran0 23.544401 7.668913 -4.510672
DOCKED: USER    NEWDPF quaternion0 -0.717807 0.282552 -0.603953 0.200397
DOCKED: USER    NEWDPF axisangle0 -0.732669 0.288402 -0.616458 156.879692
DOCKED: USER    NEWDPF quat0 -0.732669 0.288402 -0.616458 156.879692
DOCKED: USER    NEWDPF dihe0 -127.65 -126.32 65.78 -141.26 -121.64 -89.30 25.02 70.96 -54.40 167.94 
DOCKED: USER  keepresnum = 1 
DOCKED: USER  
DOCKED: REMARK  10 active torsions:
DOCKED: REMARK  status: ('A' for Active; 'I' for Inactive)
DOCKED: REMARK    1  A    between atoms: C_6  and  C_10 
DOCKED: REMARK    2  A    between atoms: C_10  and  C_11 
DOCKED: REMARK    3  A    between atoms: C_11  and  C_12 
DOCKED: REMARK    4  A    between atoms: C_12  and  O_14 
DOCKED: REMARK    5  A    between atoms: C_17  and  C_20 
DOCKED: REMARK    6  A    between atoms: C_24  and  C_27 
DOCKED: REMARK    7  A    between atoms: C_31  and  C_34 
DOCKED: REMARK    8  A    between atoms: C_34  and  C_35 
DOCKED: REMARK    9  A    between atoms: C_35  and  C_36 
DOCKED: REMARK   10  A    between atoms: C_36  and  O_38 
DOCKED: USER                              x       y       z     vdW  Elec       q    Type
DOCKED: USER                           _______ _______ _______ _____ _____    ______ ____
DOCKED: ROOT
DOCKED: ATOM      1  C   UNL d   1      23.764   7.703  -6.551 -0.31 +0.02    +0.064 C 
DOCKED: ATOM      2  C   UNL d   1      26.176   9.755  -2.755 -0.43 +0.01    +0.064 A 
DOCKED: ATOM      3  C   UNL d   1      23.931   6.726   0.219 -0.31 +0.00    +0.064 C 
DOCKED: ATOM      4  C   UNL d   1      21.508   4.797  -3.426 -0.44 +0.01    +0.064 C 
DOCKED: ATOM      5  C   UNL d   1      24.589   8.617  -5.749 -0.33 +0.02    +0.066 A 
DOCKED: ATOM      6  C   UNL d   1      25.296   9.695  -6.256 -0.33 -0.01    -0.021 A 
DOCKED: ATOM      7  C   UNL d   1      25.969  10.262  -5.202 -0.33 -0.01    -0.025 A 
DOCKED: ATOM      8  C   UNL d   1      25.645   9.508  -4.090 -0.40 +0.01    +0.066 A 
DOCKED: ATOM      9  C   UNL d   1      26.853  11.470  -5.265 -0.25 +0.01    +0.051 C 
DOCKED: ATOM     10  C   UNL d   1      25.836   9.079  -1.657 -0.40 +0.01    +0.066 A 
DOCKED: ATOM     11  C   UNL d   1      26.447   9.263  -0.414 -0.45 -0.00    -0.021 A 
DOCKED: ATOM     12  C   UNL d   1      25.829   8.389   0.458 -0.39 +0.00    +0.000 A 
DOCKED: ATOM     13  C   UNL d   1      24.869   7.704  -0.308 -0.34 +0.00    +0.070 A 
DOCKED: ATOM     14  C   UNL d   1      27.610  10.178  -0.088 -0.51 -0.00    +0.052 C 
DOCKED: ATOM     15  C   UNL d   1      23.041   6.026  -0.523 -0.33 +0.00    +0.066 A 
DOCKED: ATOM     16  C   UNL d   1      22.094   5.174   0.032 -0.41 -0.00    -0.021 A 
DOCKED: ATOM     17  C   UNL d   1      21.396   4.614  -1.018 -0.42 +0.00    +0.000 A 
DOCKED: ATOM     18  C   UNL d   1      21.937   5.135  -2.191 -0.35 +0.01    +0.070 A 
DOCKED: ATOM     19  C   UNL d   1      21.869   4.877   1.490 -0.59 +0.00    +0.052 C 
DOCKED: ATOM     20  C   UNL d   1      22.011   5.371  -4.680 -0.36 +0.01    +0.066 A 
DOCKED: ATOM     21  C   UNL d   1      21.721   4.890  -5.965 -0.37 -0.00    -0.025 A 
DOCKED: ATOM     22  C   UNL d   1      22.364   5.741  -6.840 -0.27 -0.01    -0.021 A 
DOCKED: ATOM     23  C   UNL d   1      23.023   6.698  -6.059 -0.02 +0.02    +0.066 A 
DOCKED: ATOM     24  C   UNL d   1      20.888   3.692  -6.358 -0.46 +0.01    +0.051 C 
DOCKED: ATOM     25  N   UNL d   1      24.798   8.514  -4.425 -0.25 -0.04    -0.248 N 
DOCKED: ATOM     26  N   UNL d   1      24.879   8.118  -1.599 -0.24 -0.02    -0.248 N 
DOCKED: ATOM     27  N   UNL d   1      22.919   6.037  -1.887 -0.21 -0.01    -0.248 N 
DOCKED: ATOM     28  N   UNL d   1      22.841   6.440  -4.741 -0.18 -0.04    -0.248 N 
DOCKED: ATOM     29 FE   UNL d   1      23.859   7.278  -3.170 -0.08 +0.00    +0.000 Fe
DOCKED: ENDROOT
DOCKED: BRANCH   6  30
DOCKED: ATOM     30  C   UNL d   1      25.317  10.177  -7.666 -0.29 +0.03    +0.052 C 
DOCKED: BRANCH  30  31
DOCKED: ATOM     31  C   UNL d   1      23.955   9.984  -8.323 -0.14 +0.06    +0.115 C 
DOCKED: BRANCH  31  32
DOCKED: ATOM     32  C   UNL d   1      24.101   9.876  -9.816 -0.17 +0.11    +0.139 C 
DOCKED: ATOM     33  O   UNL d   1      23.523  10.659 -10.557 -0.00 -0.35    -0.650 OA
DOCKED: BRANCH  32  34
DOCKED: ATOM     34  O   UNL d   1      24.871   8.914 -10.350 +0.18 -1.42    -0.776 OA
DOCKED: ATOM     35  H   UNL d   1      24.726   7.995 -10.086 +0.04 +0.35    +0.167 HD
DOCKED: ENDBRANCH  32  34
DOCKED: ENDBRANCH  31  32
DOCKED: ENDBRANCH  30  31
DOCKED: ENDBRANCH   6  30
DOCKED: BRANCH  22  36
DOCKED: ATOM     36  C   UNL d   1      22.383   5.609  -8.340 -0.28 +0.02    +0.052 C 
DOCKED: BRANCH  36  37
DOCKED: ATOM     37  C   UNL d   1      23.635   4.862  -8.775 -0.31 +0.05    +0.115 C 
DOCKED: BRANCH  37  38
DOCKED: ATOM     38  C   UNL d   1      24.595   5.782  -9.476 -0.18 +0.15    +0.139 C 
DOCKED: ATOM     39  O   UNL d   1      24.533   5.946 -10.685 -0.01 -0.89    -0.650 OA
DOCKED: BRANCH  38  40
DOCKED: ATOM     40  O   UNL d   1      25.538   6.432  -8.771 -0.50 -1.19    -0.776 OA
DOCKED: ATOM     41  H   UNL d   1      26.128   5.925  -8.196 -0.48 +0.12    +0.167 HD
DOCKED: ENDBRANCH  38  40
DOCKED: ENDBRANCH  37  38
DOCKED: ENDBRANCH  36  37
DOCKED: ENDBRANCH  22  36
DOCKED: BRANCH  12  42
DOCKED: ATOM     42  C   UNL d   1      26.173   8.237   1.905 -0.52 +0.00    +0.004 C 
DOCKED: ATOM     43  C   UNL d   1      25.302   8.586   2.861 -0.55 -0.00    +0.012 C 
DOCKED: ENDBRANCH  12  42
DOCKED: BRANCH  17  44
DOCKED: ATOM     44  C   UNL d   1      20.271   3.658  -0.906 -0.21 +0.00    +0.004 C 
DOCKED: ATOM     45  C   UNL d   1      20.496   2.342  -0.829 -0.60 +0.00    +0.012 C 
DOCKED: ENDBRANCH  17  44
DOCKED: TORSDOF 10
DOCKED: TER
DOCKED: ENDMDL
________________________________________________________________________________


	BEGINNING GENETIC ALGORITHM DOCKING 11 of 100
Run: 11 Seed: 1467867311 1370106245 [ Run 11 of 100 GA/GALS ]
Beginning LAMARCKIAN GENETIC ALGORITHM (LGA), with a maximum of 25000000 energy evaluations.

Final-Value: -18.290


	FINAL GENETIC ALGORITHM DOCKED STATE
	_______________________________________________


Detailed state:  trans 7.280 12.997 29.999 quatxyzw -0.274719 0.650689 -0.022548 -0.707548 center -0.174 -0.001 -0.047 ntor 10 113.7576 60.1807 72.5553 -127.9783 -150.2238 -51.9029 83.7768 58.2290 9.7131 117.8241
State:	  7.280  12.997  29.999  -0.389  0.921 -0.032 -89.928    113.76   60.18   72.56 -127.98 -150.22  -51.90   83.78   58.23    9.71  117.82

DOCKED: MODEL       11
DOCKED: USER    Run = 11
DOCKED: USER    DPF = D:/Protein_go_brrr/autodock/final/1A3N/heme_Fe/dock.dpf
DOCKED: USER  
DOCKED: USER    Estimated Free Energy of Binding    =  -13.96 kcal/mol  [=(1)+(2)+(3)-(4)]
DOCKED: USER    Estimated Inhibition Constant, Ki   =   58.23 pM (picomolar)  [Temperature = 298.15 K]
DOCKED: USER    
DOCKED: USER    (1) Final Intermolecular Energy     =  -16.95 kcal/mol
DOCKED: USER        vdW + Hbond + desolv Energy     =  -13.62 kcal/mol
DOCKED: USER        Electrostatic Energy            =   -3.32 kcal/mol
DOCKED: USER    (2) Final Total Internal Energy     =   -1.34 kcal/mol
DOCKED: USER    (3) Torsional Free Energy           =   +2.98 kcal/mol
DOCKED: USER    (4) Unbound System's Energy  [=(2)] =   -1.34 kcal/mol
DOCKED: USER    
DOCKED: USER    
DOCKED: USER    NEWDPF move heme_Fe_opt.pdbqt
DOCKED: USER    NEWDPF about -0.174000 -0.001000 -0.047000
DOCKED: USER    NEWDPF tran0 7.280435 12.996635 29.998547
DOCKED: USER    NEWDPF quaternion0 -0.274719 0.650689 -0.022548 -0.707548
DOCKED: USER    NEWDPF axisangle0 -0.388754 0.920789 -0.031908 -89.928397
DOCKED: USER    NEWDPF quat0 -0.388754 0.920789 -0.031908 -89.928397
DOCKED: USER    NEWDPF dihe0 113.76 60.18 72.56 -127.98 -150.22 -51.90 83.78 58.23 9.71 117.82 
DOCKED: USER  keepresnum = 1 
DOCKED: USER  
DOCKED: REMARK  10 active torsions:
DOCKED: REMARK  status: ('A' for Active; 'I' for Inactive)
DOCKED: REMARK    1  A    between atoms: C_6  and  C_10 
DOCKED: REMARK    2  A    between atoms: C_10  and  C_11 
DOCKED: REMARK    3  A    between atoms: C_11  and  C_12 
DOCKED: REMARK    4  A    between atoms: C_12  and  O_14 
DOCKED: REMARK    5  A    between atoms: C_17  and  C_20 
DOCKED: REMARK    6  A    between atoms: C_24  and  C_27 
DOCKED: REMARK    7  A    between atoms: C_31  and  C_34 
DOCKED: REMARK    8  A    between atoms: C_34  and  C_35 
DOCKED: REMARK    9  A    between atoms: C_35  and  C_36 
DOCKED: REMARK   10  A    between atoms: C_36  and  O_38 
DOCKED: USER                              x       y       z     vdW  Elec       q    Type
DOCKED: USER                           _______ _______ _______ _____ _____    ______ ____
DOCKED: ROOT
DOCKED: ATOM      1  C   UNL d   1       7.495  13.909  31.824 -0.28 +0.03    +0.064 C 
DOCKED: ATOM      2  C   UNL d   1       8.952   9.598  29.896 -0.36 +0.02    +0.064 A 
DOCKED: ATOM      3  C   UNL d   1       7.933  11.289  25.518 -0.40 +0.00    +0.064 C 
DOCKED: ATOM      4  C   UNL d   1       6.419  15.432  27.371 -0.50 +0.01    +0.064 C 
DOCKED: ATOM      5  C   UNL d   1       7.921  12.509  31.694 -0.09 +0.03    +0.066 A 
DOCKED: ATOM      6  C   UNL d   1       8.192  11.663  32.757 -0.29 -0.01    -0.021 A 
DOCKED: ATOM      7  C   UNL d   1       8.601  10.467  32.221 -0.36 -0.01    -0.025 A 
DOCKED: ATOM      8  C   UNL d   1       8.562  10.629  30.850 -0.31 +0.02    +0.066 A 
DOCKED: ATOM      9  C   UNL d   1       8.985   9.240  32.990 -0.45 +0.02    +0.051 C 
DOCKED: ATOM     10  C   UNL d   1       8.870   9.708  28.569 -0.39 +0.01    +0.066 A 
DOCKED: ATOM     11  C   UNL d   1       9.358   8.747  27.680 -0.41 -0.00    -0.021 A 
DOCKED: ATOM     12  C   UNL d   1       9.091   9.219  26.411 -0.43 +0.00    +0.000 A 
DOCKED: ATOM     13  C   UNL d   1       8.456  10.460  26.592 -0.34 +0.01    +0.070 A 
DOCKED: ATOM     14  C   UNL d   1      10.104   7.473  28.022 -0.21 +0.01    +0.052 C 
DOCKED: ATOM     15  C   UNL d   1       7.367  12.508  25.685 -0.35 +0.00    +0.066 A 
DOCKED: ATOM     16  C   UNL d   1       6.790  13.225  24.644 -0.37 -0.00    -0.021 A 
DOCKED: ATOM     17  C   UNL d   1       6.355  14.422  25.176 -0.42 +0.00    +0.000 A 
DOCKED: ATOM     18  C   UNL d   1       6.682  14.408  26.530 -0.37 +0.01    +0.070 A 
DOCKED: ATOM     19  C   UNL d   1       6.672  12.815  23.201 -0.41 +0.00    +0.052 C 
DOCKED: ATOM     20  C   UNL d   1       6.692  15.428  28.814 -0.40 +0.01    +0.066 A 
DOCKED: ATOM     21  C   UNL d   1       6.611  16.546  29.656 -0.35 -0.01    -0.025 A 
DOCKED: ATOM     22  C   UNL d   1       6.909  16.086  30.922 -0.31 -0.01    -0.021 A 
DOCKED: ATOM     23  C   UNL d   1       7.165  14.715  30.802 -0.30 +0.02    +0.066 A 
DOCKED: ATOM     24  C   UNL d   1       6.276  17.975  29.298 -0.34 +0.01    +0.051 C 
DOCKED: ATOM     25  N   UNL d   1       8.139  11.869  30.532 +0.27 -0.07    -0.248 N 
DOCKED: ATOM     26  N   UNL d   1       8.328  10.762  27.908 -0.24 -0.03    -0.248 N 
DOCKED: ATOM     27  N   UNL d   1       7.264  13.214  26.853 -0.23 -0.02    -0.248 N 
DOCKED: ATOM     28  N   UNL d   1       7.075  14.328  29.507 -0.21 -0.06    -0.248 N 
DOCKED: ATOM     29 FE   UNL d   1       7.701  12.547  28.706 -0.08 +0.00    +0.000 Fe
DOCKED: ENDROOT
DOCKED: BRANCH   6  30
DOCKED: ATOM     30  C   UNL d   1       8.052  11.967  34.210 -0.23 +0.03    +0.052 C 
DOCKED: BRANCH  30  31
DOCKED: ATOM     31  C   UNL d   1       6.742  11.407  34.754 -0.30 +0.08    +0.115 C 
DOCKED: BRANCH  31  32
DOCKED: ATOM     32  C   UNL d   1       5.679  12.470  34.766 -0.14 +0.19    +0.139 C 
DOCKED: ATOM     33  O   UNL d   1       4.784  12.448  35.599 -0.31 -1.04    -0.650 OA
DOCKED: BRANCH  32  34
DOCKED: ATOM     34  O   UNL d   1       5.704  13.459  33.856 -0.30 -1.34    -0.776 OA
DOCKED: ATOM     35  H   UNL d   1       6.429  14.100  33.879 +0.05 +0.27    +0.167 HD
DOCKED: ENDBRANCH  32  34
DOCKED: ENDBRANCH  31  32
DOCKED: ENDBRANCH  30  31
DOCKED: ENDBRANCH   6  30
DOCKED: BRANCH  22  36
DOCKED: ATOM     36  C   UNL d   1       6.991  16.930  32.167 -0.25 +0.03    +0.052 C 
DOCKED: BRANCH  36  37
DOCKED: ATOM     37  C   UNL d   1       8.084  16.394  33.080 -0.19 +0.07    +0.115 C 
DOCKED: BRANCH  37  38
DOCKED: ATOM     38  C   UNL d   1       7.533  16.044  34.433 -0.05 +0.17    +0.139 C 
DOCKED: ATOM     39  O   UNL d   1       6.872  16.853  35.067 -0.56 -1.10    -0.650 OA
DOCKED: BRANCH  38  40
DOCKED: ATOM     40  O   UNL d   1       7.769  14.829  34.960 -0.05 -0.98    -0.776 OA
DOCKED: ATOM     41  H   UNL d   1       7.020  14.256  35.175 +0.03 +0.31    +0.167 HD
DOCKED: ENDBRANCH  38  40
DOCKED: ENDBRANCH  37  38
DOCKED: ENDBRANCH  36  37
DOCKED: ENDBRANCH  22  36
DOCKED: BRANCH  12  42
DOCKED: ATOM     42  C   UNL d   1       9.452   8.514  25.142 -0.56 +0.00    +0.004 C 
DOCKED: ATOM     43  C   UNL d   1       8.509   8.157  24.260 -0.64 +0.00    +0.012 C 
DOCKED: ENDBRANCH  12  42
DOCKED: BRANCH  17  44
DOCKED: ATOM     44  C   UNL d   1       5.655  15.499  24.441 -0.58 +0.00    +0.004 C 
DOCKED: ATOM     45  C   UNL d   1       6.317  16.290  23.591 -0.58 +0.00    +0.012 C 
DOCKED: ENDBRANCH  17  44
DOCKED: TORSDOF 10
DOCKED: TER
DOCKED: ENDMDL
________________________________________________________________________________


	BEGINNING GENETIC ALGORITHM DOCKING 12 of 100
Run: 12 Seed: 578940431 534241566 [ Run 12 of 100 GA/GALS ]
Beginning LAMARCKIAN GENETIC ALGORITHM (LGA), with a maximum of 25000000 energy evaluations.

Final-Value: -13.609


	FINAL GENETIC ALGORITHM DOCKED STATE
	_______________________________________________


Detailed state:  trans 15.932 7.243 16.369 quatxyzw 0.974915 0.214922 0.044188 0.037377 center -0.174 -0.001 -0.047 ntor 10 -25.0637 -174.8148 56.8901 -136.2436 97.9283 37.5608 -127.7338 -132.9176 178.0708 142.0359
State:	 15.932   7.243  16.369   0.976  0.215  0.044 175.716    -25.06 -174.81   56.89 -136.24   97.93   37.56 -127.73 -132.92  178.07  142.04

DOCKED: MODEL       12
DOCKED: USER    Run = 12
DOCKED: USER    DPF = D:/Protein_go_brrr/autodock/final/1A3N/heme_Fe/dock.dpf
DOCKED: USER  
DOCKED: USER    Estimated Free Energy of Binding    =   -8.43 kcal/mol  [=(1)+(2)+(3)-(4)]
DOCKED: USER    Estimated Inhibition Constant, Ki   =  661.89 nM (nanomolar)  [Temperature = 298.15 K]
DOCKED: USER    
DOCKED: USER    (1) Final Intermolecular Energy     =  -11.41 kcal/mol
DOCKED: USER        vdW + Hbond + desolv Energy     =   -9.26 kcal/mol
DOCKED: USER        Electrostatic Energy            =   -2.15 kcal/mol
DOCKED: USER    (2) Final Total Internal Energy     =   -2.20 kcal/mol
DOCKED: USER    (3) Torsional Free Energy           =   +2.98 kcal/mol
DOCKED: USER    (4) Unbound System's Energy  [=(2)] =   -2.20 kcal/mol
DOCKED: USER    
DOCKED: USER    
DOCKED: USER    NEWDPF move heme_Fe_opt.pdbqt
DOCKED: USER    NEWDPF about -0.174000 -0.001000 -0.047000
DOCKED: USER    NEWDPF tran0 15.932049 7.243162 16.369290
DOCKED: USER    NEWDPF quaternion0 0.974915 0.214922 0.044188 0.037377
DOCKED: USER    NEWDPF axisangle0 0.975596 0.215073 0.044219 175.715917
DOCKED: USER    NEWDPF quat0 0.975596 0.215073 0.044219 175.715917
DOCKED: USER    NEWDPF dihe0 -25.06 -174.81 56.89 -136.24 97.93 37.56 -127.73 -132.92 178.07 142.04 
DOCKED: USER  keepresnum = 1 
DOCKED: USER  
DOCKED: REMARK  10 active torsions:
DOCKED: REMARK  status: ('A' for Active; 'I' for Inactive)
DOCKED: REMARK    1  A    between atoms: C_6  and  C_10 
DOCKED: REMARK    2  A    between atoms: C_10  and  C_11 
DOCKED: REMARK    3  A    between atoms: C_11  and  C_12 
DOCKED: REMARK    4  A    between atoms: C_12  and  O_14 
DOCKED: REMARK    5  A    between atoms: C_17  and  C_20 
DOCKED: REMARK    6  A    between atoms: C_24  and  C_27 
DOCKED: REMARK    7  A    between atoms: C_31  and  C_34 
DOCKED: REMARK    8  A    between atoms: C_34  and  C_35 
DOCKED: REMARK    9  A    between atoms: C_35  and  C_36 
DOCKED: REMARK   10  A    between atoms: C_36  and  O_38 
DOCKED: USER                              x       y       z     vdW  Elec       q    Type
DOCKED: USER                           _______ _______ _______ _____ _____    ______ ____
DOCKED: ROOT
DOCKED: ATOM      1  C   UNL d   1      14.154   6.522  15.642 -0.36 +0.03    +0.064 C 
DOCKED: ATOM      2  C   UNL d   1      16.037  11.031  16.387 -0.18 -0.00    +0.064 A 
DOCKED: ATOM      3  C   UNL d   1      20.390   9.059  16.867 -0.26 +0.02    +0.064 C 
DOCKED: ATOM      4  C   UNL d   1      18.572   4.676  16.253 -0.27 +0.00    +0.064 C 
DOCKED: ATOM      5  C   UNL d   1      14.267   7.966  15.890 -0.26 +0.02    +0.066 A 
DOCKED: ATOM      6  C   UNL d   1      13.198   8.845  15.944 -0.34 -0.00    -0.021 A 
DOCKED: ATOM      7  C   UNL d   1      13.722  10.097  16.147 -0.36 -0.00    -0.025 A 
DOCKED: ATOM      8  C   UNL d   1      15.093   9.934  16.210 -0.26 +0.01    +0.066 A 
DOCKED: ATOM      9  C   UNL d   1      12.942  11.368  16.291 -0.37 +0.01    +0.051 C 
DOCKED: ATOM     10  C   UNL d   1      17.358  10.895  16.508 -0.21 +0.01    +0.066 A 
DOCKED: ATOM     11  C   UNL d   1      18.246  11.971  16.561 -0.23 -0.00    -0.021 A 
DOCKED: ATOM     12  C   UNL d   1      19.510  11.429  16.683 -0.20 +0.00    +0.000 A 
DOCKED: ATOM     13  C   UNL d   1      19.326  10.035  16.689 -0.16 +0.02    +0.070 A 
DOCKED: ATOM     14  C   UNL d   1      17.914  13.444  16.433 -0.32 -0.00    +0.052 C 
DOCKED: ATOM     15  C   UNL d   1      20.225   7.716  16.822 -0.22 +0.02    +0.066 A 
DOCKED: ATOM     16  C   UNL d   1      21.247   6.816  17.095 -0.31 -0.00    -0.021 A 
DOCKED: ATOM     17  C   UNL d   1      20.726   5.552  16.916 -0.28 -0.00    +0.000 A 
DOCKED: ATOM     18  C   UNL d   1      19.397   5.710  16.531 -0.20 +0.01    +0.070 A 
DOCKED: ATOM     19  C   UNL d   1      22.666   7.130  17.486 -0.26 +0.02    +0.052 C 
DOCKED: ATOM     20  C   UNL d   1      17.152   4.802  15.905 -0.26 +0.03    +0.066 A 
DOCKED: ATOM     21  C   UNL d   1      16.341   3.765  15.422 -0.25 -0.01    -0.025 A 
DOCKED: ATOM     22  C   UNL d   1      15.084   4.310  15.267 -0.25 -0.01    -0.021 A 
DOCKED: ATOM     23  C   UNL d   1      15.177   5.652  15.653 -0.28 +0.04    +0.066 A 
DOCKED: ATOM     24  C   UNL d   1      16.722   2.335  15.115 -0.23 -0.00    +0.051 C 
DOCKED: ATOM     25  N   UNL d   1      15.420   8.635  16.062 -0.15 -0.08    -0.248 N 
DOCKED: ATOM     26  N   UNL d   1      18.016   9.709  16.573 -0.11 -0.06    -0.248 N 
DOCKED: ATOM     27  N   UNL d   1      19.075   7.038  16.516 -0.12 -0.07    -0.248 N 
DOCKED: ATOM     28  N   UNL d   1      16.451   5.958  15.999 -0.21 -0.15    -0.248 N 
DOCKED: ATOM     29 FE   UNL d   1      17.234   7.832  16.286 -0.05 +0.00    +0.000 Fe
DOCKED: ENDROOT
DOCKED: BRANCH   6  30
DOCKED: ATOM     30  C   UNL d   1      11.750   8.512  15.830 -0.42 +0.01    +0.052 C 
DOCKED: BRANCH  30  31
DOCKED: ATOM     31  C   UNL d   1      11.281   8.630  14.384 -0.21 +0.03    +0.115 C 
DOCKED: BRANCH  31  32
DOCKED: ATOM     32  C   UNL d   1      12.173   7.832  13.474 -0.13 +0.05    +0.139 C 
DOCKED: ATOM     33  O   UNL d   1      11.851   6.708  13.115 +0.02 -0.27    -0.650 OA
DOCKED: BRANCH  32  34
DOCKED: ATOM     34  O   UNL d   1      13.337   8.349  13.047 +0.10 -0.36    -0.776 OA
DOCKED: ATOM     35  H   UNL d   1      14.050   7.749  12.788 +0.04 +0.14    +0.167 HD
DOCKED: ENDBRANCH  32  34
DOCKED: ENDBRANCH  31  32
DOCKED: ENDBRANCH  30  31
DOCKED: ENDBRANCH   6  30
DOCKED: BRANCH  22  36
DOCKED: ATOM     36  C   UNL d   1      13.874   3.591  14.731 -0.24 +0.04    +0.052 C 
DOCKED: BRANCH  36  37
DOCKED: ATOM     37  C   UNL d   1      13.356   4.310  13.493 -0.22 +0.09    +0.115 C 
DOCKED: BRANCH  37  38
DOCKED: ATOM     38  C   UNL d   1      14.481   4.648  12.556 -0.06 +0.17    +0.139 C 
DOCKED: ATOM     39  O   UNL d   1      15.416   3.876  12.398 +0.04 -0.90    -0.650 OA
DOCKED: BRANCH  38  40
DOCKED: ATOM     40  O   UNL d   1      14.468   5.812  11.883 -0.08 -1.10    -0.776 OA
DOCKED: ATOM     41  H   UNL d   1      13.767   6.453  12.066 +0.04 +0.14    +0.167 HD
DOCKED: ENDBRANCH  38  40
DOCKED: ENDBRANCH  37  38
DOCKED: ENDBRANCH  36  37
DOCKED: ENDBRANCH  22  36
DOCKED: BRANCH  12  42
DOCKED: ATOM     42  C   UNL d   1      20.777  12.220  16.765 -0.26 +0.00    +0.004 C 
DOCKED: ATOM     43  C   UNL d   1      21.422  12.369  17.929 -0.44 +0.00    +0.012 C 
DOCKED: ENDBRANCH  12  42
DOCKED: BRANCH  17  44
DOCKED: ATOM     44  C   UNL d   1      21.448   4.275  17.118 -0.19 -0.00    +0.004 C 
DOCKED: ATOM     45  C   UNL d   1      22.240   3.777  16.163 -0.30 -0.00    +0.012 C 
DOCKED: ENDBRANCH  17  44
DOCKED: TORSDOF 10
DOCKED: TER
DOCKED: ENDMDL
________________________________________________________________________________


	BEGINNING GENETIC ALGORITHM DOCKING 13 of 100
Run: 13 Seed: 830715313 1641954357 [ Run 13 of 100 GA/GALS ]
Beginning LAMARCKIAN GENETIC ALGORITHM (LGA), with a maximum of 25000000 energy evaluations.

Final-Value: -18.234


	FINAL GENETIC ALGORITHM DOCKED STATE
	_______________________________________________


Detailed state:  trans 2.665 -6.807 -4.399 quatxyzw -0.285085 -0.705137 -0.073836 -0.645025 center -0.174 -0.001 -0.047 ntor 10 -75.9986 130.2960 89.2534 -123.8251 -5.2273 -160.3661 -70.8853 68.8895 -163.2352 -156.3521
State:	  2.665  -6.807  -4.399  -0.373 -0.923 -0.097 -99.665    -76.00  130.30   89.25 -123.83   -5.23 -160.37  -70.89   68.89 -163.24 -156.35

DOCKED: MODEL       13
DOCKED: USER    Run = 13
DOCKED: USER    DPF = D:/Protein_go_brrr/autodock/final/1A3N/heme_Fe/dock.dpf
DOCKED: USER  
DOCKED: USER    Estimated Free Energy of Binding    =  -13.31 kcal/mol  [=(1)+(2)+(3)-(4)]
DOCKED: USER    Estimated Inhibition Constant, Ki   =  174.92 pM (picomolar)  [Temperature = 298.15 K]
DOCKED: USER    
DOCKED: USER    (1) Final Intermolecular Energy     =  -16.29 kcal/mol
DOCKED: USER        vdW + Hbond + desolv Energy     =  -14.23 kcal/mol
DOCKED: USER        Electrostatic Energy            =   -2.07 kcal/mol
DOCKED: USER    (2) Final Total Internal Energy     =   -1.94 kcal/mol
DOCKED: USER    (3) Torsional Free Energy           =   +2.98 kcal/mol
DOCKED: USER    (4) Unbound System's Energy  [=(2)] =   -1.94 kcal/mol
DOCKED: USER    
DOCKED: USER    
DOCKED: USER    NEWDPF move heme_Fe_opt.pdbqt
DOCKED: USER    NEWDPF about -0.174000 -0.001000 -0.047000
DOCKED: USER    NEWDPF tran0 2.665097 -6.806749 -4.399030
DOCKED: USER    NEWDPF quaternion0 -0.285085 -0.705137 -0.073836 -0.645025
DOCKED: USER    NEWDPF axisangle0 -0.373069 -0.922759 -0.096623 -99.664925
DOCKED: USER    NEWDPF quat0 -0.373069 -0.922759 -0.096623 -99.664925
DOCKED: USER    NEWDPF dihe0 -76.00 130.30 89.25 -123.83 -5.23 -160.37 -70.89 68.89 -163.24 -156.35 
DOCKED: USER  keepresnum = 1 
DOCKED: USER  
DOCKED: REMARK  10 active torsions:
DOCKED: REMARK  status: ('A' for Active; 'I' for Inactive)
DOCKED: REMARK    1  A    between atoms: C_6  and  C_10 
DOCKED: REMARK    2  A    between atoms: C_10  and  C_11 
DOCKED: REMARK    3  A    between atoms: C_11  and  C_12 
DOCKED: REMARK    4  A    between atoms: C_12  and  O_14 
DOCKED: REMARK    5  A    between atoms: C_17  and  C_20 
DOCKED: REMARK    6  A    between atoms: C_24  and  C_27 
DOCKED: REMARK    7  A    between atoms: C_31  and  C_34 
DOCKED: REMARK    8  A    between atoms: C_34  and  C_35 
DOCKED: REMARK    9  A    between atoms: C_35  and  C_36 
DOCKED: REMARK   10  A    between atoms: C_36  and  O_38 
DOCKED: USER                              x       y       z     vdW  Elec       q    Type
DOCKED: USER                           _______ _______ _______ _____ _____    ______ ____
DOCKED: ROOT
DOCKED: ATOM      1  C   UNL d   1       2.185  -7.212  -6.352 -0.31 +0.02    +0.064 C 
DOCKED: ATOM      2  C   UNL d   1       0.680  -8.932  -1.970 -0.40 +0.00    +0.064 A 
DOCKED: ATOM      3  C   UNL d   1       2.758  -5.155   0.148 -0.42 +0.00    +0.064 C 
DOCKED: ATOM      4  C   UNL d   1       4.314  -3.528  -4.073 -0.49 +0.01    +0.064 C 
DOCKED: ATOM      5  C   UNL d   1       1.640  -8.090  -5.308 -0.32 +0.01    +0.066 A 
DOCKED: ATOM      6  C   UNL d   1       1.063  -9.329  -5.537 -0.30 -0.00    -0.021 A 
DOCKED: ATOM      7  C   UNL d   1       0.642  -9.804  -4.320 -0.33 -0.00    -0.025 A 
DOCKED: ATOM      8  C   UNL d   1       0.979  -8.836  -3.393 -0.32 +0.01    +0.066 A 
DOCKED: ATOM      9  C   UNL d   1      -0.026 -11.121  -4.069 -0.10 +0.00    +0.051 C 
DOCKED: ATOM     10  C   UNL d   1       1.044  -8.040  -1.047 -0.38 +0.00    +0.066 A 
DOCKED: ATOM     11  C   UNL d   1       0.645  -8.101   0.290 -0.43 -0.00    -0.021 A 
DOCKED: ATOM     12  C   UNL d   1       1.217  -7.013   0.919 -0.34 +0.00    +0.000 A 
DOCKED: ATOM     13  C   UNL d   1       1.937  -6.333  -0.079 -0.37 +0.00    +0.070 A 
DOCKED: ATOM     14  C   UNL d   1      -0.293  -9.108   0.924 -0.60 -0.00    +0.052 C 
DOCKED: ATOM     15  C   UNL d   1       3.411  -4.467  -0.818 -0.37 +0.00    +0.066 A 
DOCKED: ATOM     16  C   UNL d   1       4.266  -3.405  -0.548 -0.46 -0.00    -0.021 A 
DOCKED: ATOM     17  C   UNL d   1       4.713  -2.933  -1.765 -0.48 +0.00    +0.000 A 
DOCKED: ATOM     18  C   UNL d   1       4.116  -3.715  -2.750 -0.39 +0.01    +0.070 A 
DOCKED: ATOM     19  C   UNL d   1       4.630  -2.839   0.798 -0.52 +0.00    +0.052 C 
DOCKED: ATOM     20  C   UNL d   1       3.753  -4.370  -5.136 -0.39 +0.01    +0.066 A 
DOCKED: ATOM     21  C   UNL d   1       3.784  -4.074  -6.506 -0.41 -0.00    -0.025 A 
DOCKED: ATOM     22  C   UNL d   1       3.183  -5.143  -7.138 -0.32 -0.00    -0.021 A 
DOCKED: ATOM     23  C   UNL d   1       2.805  -6.042  -6.134 -0.21 +0.02    +0.066 A 
DOCKED: ATOM     24  C   UNL d   1       4.343  -2.850  -7.194 -0.45 +0.00    +0.051 C 
DOCKED: ATOM     25  N   UNL d   1       1.595  -7.799  -3.996 -0.21 -0.03    -0.248 N 
DOCKED: ATOM     26  N   UNL d   1       1.825  -6.954  -1.279 -0.24 -0.00    -0.248 N 
DOCKED: ATOM     27  N   UNL d   1       3.350  -4.687  -2.168 -0.23 -0.01    -0.248 N 
DOCKED: ATOM     28  N   UNL d   1       3.115  -5.545  -4.912 -0.24 -0.05    -0.248 N 
DOCKED: ATOM     29 FE   UNL d   1       2.471  -6.247  -3.096 -0.08 +0.00    +0.000 Fe
DOCKED: ENDROOT
DOCKED: BRANCH   6  30
DOCKED: ATOM     30  C   UNL d   1       0.937 -10.037  -6.842 -0.23 +0.01    +0.052 C 
DOCKED: BRANCH  30  31
DOCKED: ATOM     31  C   UNL d   1      -0.142  -9.391  -7.704 -0.18 +0.05    +0.115 C 
DOCKED: BRANCH  31  32
DOCKED: ATOM     32  C   UNL d   1       0.477  -8.663  -8.865 -0.16 +0.08    +0.139 C 
DOCKED: ATOM     33  O   UNL d   1       1.692  -8.565  -8.963 +0.01 -0.24    -0.650 OA
DOCKED: BRANCH  32  34
DOCKED: ATOM     34  O   UNL d   1      -0.303  -8.112  -9.810 -0.14 -0.76    -0.776 OA
DOCKED: ATOM     35  H   UNL d   1      -0.431  -7.153  -9.812 +0.04 +0.30    +0.167 HD
DOCKED: ENDBRANCH  32  34
DOCKED: ENDBRANCH  31  32
DOCKED: ENDBRANCH  30  31
DOCKED: ENDBRANCH   6  30
DOCKED: BRANCH  22  36
DOCKED: ATOM     36  C   UNL d   1       2.943  -5.268  -8.619 -0.27 +0.01    +0.052 C 
DOCKED: BRANCH  36  37
DOCKED: ATOM     37  C   UNL d   1       2.073  -4.114  -9.097 -0.31 +0.04    +0.115 C 
DOCKED: BRANCH  37  38
DOCKED: ATOM     38  C   UNL d   1       0.717  -4.602  -9.523 -0.25 +0.13    +0.139 C 
DOCKED: ATOM     39  O   UNL d   1       0.009  -3.924 -10.253 -0.06 -0.65    -0.650 OA
DOCKED: BRANCH  38  40
DOCKED: ATOM     40  O   UNL d   1       0.269  -5.797  -9.096 -0.27 -1.20    -0.776 OA
DOCKED: ATOM     41  H   UNL d   1       0.840  -6.573  -9.188 +0.04 +0.16    +0.167 HD
DOCKED: ENDBRANCH  38  40
DOCKED: ENDBRANCH  37  38
DOCKED: ENDBRANCH  36  37
DOCKED: ENDBRANCH  22  36
DOCKED: BRANCH  12  42
DOCKED: ATOM     42  C   UNL d   1       1.048  -6.674   2.366 -0.51 +0.00    +0.004 C 
DOCKED: ATOM     43  C   UNL d   1       2.089  -6.273   3.106 -0.54 +0.00    +0.012 C 
DOCKED: ENDBRANCH  12  42
DOCKED: BRANCH  17  44
DOCKED: ATOM     44  C   UNL d   1       5.665  -1.818  -1.969 -0.63 +0.00    +0.004 C 
DOCKED: ATOM     45  C   UNL d   1       5.309  -0.556  -1.708 -0.67 +0.00    +0.012 C 
DOCKED: ENDBRANCH  17  44
DOCKED: TORSDOF 10
DOCKED: TER
DOCKED: ENDMDL
________________________________________________________________________________


	BEGINNING GENETIC ALGORITHM DOCKING 14 of 100
Run: 14 Seed: 825754304 1555897800 [ Run 14 of 100 GA/GALS ]
Beginning LAMARCKIAN GENETIC ALGORITHM (LGA), with a maximum of 25000000 energy evaluations.

Final-Value: -17.986


	FINAL GENETIC ALGORITHM DOCKED STATE
	_______________________________________________


Detailed state:  trans 7.682 12.245 29.956 quatxyzw 0.216612 -0.685367 -0.020088 0.694944 center -0.174 -0.001 -0.047 ntor 10 44.6511 -173.7158 38.4221 -120.7301 -109.5173 62.7725 -61.9853 -8.1967 163.5918 56.8521
State:	  7.682  12.245  29.956   0.301 -0.953 -0.028 91.954     44.65 -173.72   38.42 -120.73 -109.52   62.77  -61.99   -8.20  163.59   56.85

DOCKED: MODEL       14
DOCKED: USER    Run = 14
DOCKED: USER    DPF = D:/Protein_go_brrr/autodock/final/1A3N/heme_Fe/dock.dpf
DOCKED: USER  
DOCKED: USER    Estimated Free Energy of Binding    =  -13.36 kcal/mol  [=(1)+(2)+(3)-(4)]
DOCKED: USER    Estimated Inhibition Constant, Ki   =  160.49 pM (picomolar)  [Temperature = 298.15 K]
DOCKED: USER    
DOCKED: USER    (1) Final Intermolecular Energy     =  -16.35 kcal/mol
DOCKED: USER        vdW + Hbond + desolv Energy     =  -13.96 kcal/mol
DOCKED: USER        Electrostatic Energy            =   -2.38 kcal/mol
DOCKED: USER    (2) Final Total Internal Energy     =   -1.64 kcal/mol
DOCKED: USER    (3) Torsional Free Energy           =   +2.98 kcal/mol
DOCKED: USER    (4) Unbound System's Energy  [=(2)] =   -1.64 kcal/mol
DOCKED: USER    
DOCKED: USER    
DOCKED: USER    NEWDPF move heme_Fe_opt.pdbqt
DOCKED: USER    NEWDPF about -0.174000 -0.001000 -0.047000
DOCKED: USER    NEWDPF tran0 7.681702 12.245043 29.955685
DOCKED: USER    NEWDPF quaternion0 0.216612 -0.685367 -0.020088 0.694944
DOCKED: USER    NEWDPF axisangle0 0.301242 -0.953138 -0.027937 91.954441
DOCKED: USER    NEWDPF quat0 0.301242 -0.953138 -0.027937 91.954441
DOCKED: USER    NEWDPF dihe0 44.65 -173.72 38.42 -120.73 -109.52 62.77 -61.99 -8.20 163.59 56.85 
DOCKED: USER  keepresnum = 1 
DOCKED: USER  
DOCKED: REMARK  10 active torsions:
DOCKED: REMARK  status: ('A' for Active; 'I' for Inactive)
DOCKED: REMARK    1  A    between atoms: C_6  and  C_10 
DOCKED: REMARK    2  A    between atoms: C_10  and  C_11 
DOCKED: REMARK    3  A    between atoms: C_11  and  C_12 
DOCKED: REMARK    4  A    between atoms: C_12  and  O_14 
DOCKED: REMARK    5  A    between atoms: C_17  and  C_20 
DOCKED: REMARK    6  A    between atoms: C_24  and  C_27 
DOCKED: REMARK    7  A    between atoms: C_31  and  C_34 
DOCKED: REMARK    8  A    between atoms: C_34  and  C_35 
DOCKED: REMARK    9  A    between atoms: C_35  and  C_36 
DOCKED: REMARK   10  A    between atoms: C_36  and  O_38 
DOCKED: USER                              x       y       z     vdW  Elec       q    Type
DOCKED: USER                           _______ _______ _______ _____ _____    ______ ____
DOCKED: ROOT
DOCKED: ATOM      1  C   UNL d   1       8.085  12.899  31.858 -0.26 +0.03    +0.064 C 
DOCKED: ATOM      2  C   UNL d   1       9.200   8.843  29.264 -0.28 +0.01    +0.064 A 
DOCKED: ATOM      3  C   UNL d   1       7.887  11.133  25.251 -0.39 +0.00    +0.064 C 
DOCKED: ATOM      4  C   UNL d   1       6.702  15.033  27.755 -0.47 +0.01    +0.064 C 
DOCKED: ATOM      5  C   UNL d   1       8.441  11.517  31.510 -0.24 +0.02    +0.066 A 
DOCKED: ATOM      6  C   UNL d   1       8.767  10.530  32.426 -0.35 -0.01    -0.021 A 
DOCKED: ATOM      7  C   UNL d   1       9.080   9.405  31.704 -0.40 -0.01    -0.025 A 
DOCKED: ATOM      8  C   UNL d   1       8.933   9.749  30.374 -0.38 +0.02    +0.066 A 
DOCKED: ATOM      9  C   UNL d   1       9.477   8.075  32.269 -0.46 +0.01    +0.051 C 
DOCKED: ATOM     10  C   UNL d   1       9.011   9.132  27.975 -0.39 +0.01    +0.066 A 
DOCKED: ATOM     11  C   UNL d   1       9.384   8.284  26.929 -0.41 -0.00    -0.021 A 
DOCKED: ATOM     12  C   UNL d   1       9.031   8.929  25.760 -0.45 +0.00    +0.000 A 
DOCKED: ATOM     13  C   UNL d   1       8.464  10.152  26.157 -0.36 +0.01    +0.070 A 
DOCKED: ATOM     14  C   UNL d   1      10.104   6.955  27.034 -0.31 +0.01    +0.052 C 
DOCKED: ATOM     15  C   UNL d   1       7.387  12.334  25.624 -0.35 +0.00    +0.066 A 
DOCKED: ATOM     16  C   UNL d   1       6.754  13.200  24.742 -0.37 -0.00    -0.021 A 
DOCKED: ATOM     17  C   UNL d   1       6.415  14.327  25.461 -0.42 +0.00    +0.000 A 
DOCKED: ATOM     18  C   UNL d   1       6.853  14.123  26.767 -0.37 +0.01    +0.070 A 
DOCKED: ATOM     19  C   UNL d   1       6.500  12.990  23.273 -0.42 +0.00    +0.052 C 
DOCKED: ATOM     20  C   UNL d   1       7.095  14.829  29.155 -0.36 +0.01    +0.066 A 
DOCKED: ATOM     21  C   UNL d   1       7.130  15.826  30.140 -0.33 -0.01    -0.025 A 
DOCKED: ATOM     22  C   UNL d   1       7.514  15.193  31.304 -0.29 -0.01    -0.021 A 
DOCKED: ATOM     23  C   UNL d   1       7.704  13.844  30.984 -0.20 +0.02    +0.066 A 
DOCKED: ATOM     24  C   UNL d   1       6.824  17.299  30.002 -0.24 +0.01    +0.051 C 
DOCKED: ATOM     25  N   UNL d   1       8.535  11.032  30.260 -0.22 -0.07    -0.248 N 
DOCKED: ATOM     26  N   UNL d   1       8.460  10.280  27.507 -0.24 -0.03    -0.248 N 
DOCKED: ATOM     27  N   UNL d   1       7.411  12.881  26.879 -0.22 -0.02    -0.248 N 
DOCKED: ATOM     28  N   UNL d   1       7.490  13.636  29.662 -0.13 -0.06    -0.248 N 
DOCKED: ATOM     29 FE   UNL d   1       7.974  11.960  28.584 -0.08 +0.00    +0.000 Fe
DOCKED: ENDROOT
DOCKED: BRANCH   6  30
DOCKED: ATOM     30  C   UNL d   1       8.760  10.641  33.912 -0.32 +0.03    +0.052 C 
DOCKED: BRANCH  30  31
DOCKED: ATOM     31  C   UNL d   1      10.184  10.685  34.456 -0.17 +0.11    +0.115 C 
DOCKED: BRANCH  31  32
DOCKED: ATOM     32  C   UNL d   1      10.434  11.985  35.169 -0.11 +0.17    +0.139 C 
DOCKED: ATOM     33  O   UNL d   1      11.181  12.826  34.687 -0.54 -0.96    -0.650 OA
DOCKED: BRANCH  32  34
DOCKED: ATOM     34  O   UNL d   1       9.838  12.235  36.346 +0.04 -0.69    -0.776 OA
DOCKED: ATOM     35  H   UNL d   1       9.440  13.104  36.496 +0.04 +0.13    +0.167 HD
DOCKED: ENDBRANCH  32  34
DOCKED: ENDBRANCH  31  32
DOCKED: ENDBRANCH  30  31
DOCKED: ENDBRANCH   6  30
DOCKED: BRANCH  22  36
DOCKED: ATOM     36  C   UNL d   1       7.734  15.860  32.636 -0.25 +0.03    +0.052 C 
DOCKED: BRANCH  36  37
DOCKED: ATOM     37  C   UNL d   1       7.513  14.854  33.756 -0.19 +0.12    +0.115 C 
DOCKED: BRANCH  37  38
DOCKED: ATOM     38  C   UNL d   1       7.935  15.423  35.082 -0.11 +0.16    +0.139 C 
DOCKED: ATOM     39  O   UNL d   1       7.375  16.405  35.547 -0.57 -0.99    -0.650 OA
DOCKED: BRANCH  38  40
DOCKED: ATOM     40  O   UNL d   1       8.941  14.852  35.768 +0.05 -0.61    -0.776 OA
DOCKED: ATOM     41  H   UNL d   1       9.441  14.133  35.357 +0.04 +0.13    +0.167 HD
DOCKED: ENDBRANCH  38  40
DOCKED: ENDBRANCH  37  38
DOCKED: ENDBRANCH  36  37
DOCKED: ENDBRANCH  22  36
DOCKED: BRANCH  12  42
DOCKED: ATOM     42  C   UNL d   1       9.256   8.389  24.383 -0.65 +0.00    +0.004 C 
DOCKED: ATOM     43  C   UNL d   1       8.362   7.573  23.809 -0.68 +0.00    +0.012 C 
DOCKED: ENDBRANCH  12  42
DOCKED: BRANCH  17  44
DOCKED: ATOM     44  C   UNL d   1       5.700  15.513  24.937 -0.56 +0.00    +0.004 C 
DOCKED: ATOM     45  C   UNL d   1       6.271  16.312  24.030 -0.58 +0.00    +0.012 C 
DOCKED: ENDBRANCH  17  44
DOCKED: TORSDOF 10
DOCKED: TER
DOCKED: ENDMDL
________________________________________________________________________________


	BEGINNING GENETIC ALGORITHM DOCKING 15 of 100
Run: 15 Seed: 1856719619 1805132878 [ Run 15 of 100 GA/GALS ]
Beginning LAMARCKIAN GENETIC ALGORITHM (LGA), with a maximum of 25000000 energy evaluations.

Final-Value: -16.408


	FINAL GENETIC ALGORITHM DOCKED STATE
	_______________________________________________


Detailed state:  trans 9.122 12.020 30.623 quatxyzw -0.558760 -0.164748 0.811851 0.039299 center -0.174 -0.001 -0.047 ntor 10 66.3169 -109.9032 35.2783 -160.5300 -105.1588 -152.4973 55.6469 -54.1027 -180.0000 -42.6760
State:	  9.122  12.020  30.623  -0.559 -0.165  0.812 175.495     66.32 -109.90   35.28 -160.53 -105.16 -152.50   55.65  -54.10 -180.00  -42.68

DOCKED: MODEL       15
DOCKED: USER    Run = 15
DOCKED: USER    DPF = D:/Protein_go_brrr/autodock/final/1A3N/heme_Fe/dock.dpf
DOCKED: USER  
DOCKED: USER    Estimated Free Energy of Binding    =  -12.91 kcal/mol  [=(1)+(2)+(3)-(4)]
DOCKED: USER    Estimated Inhibition Constant, Ki   =  343.41 pM (picomolar)  [Temperature = 298.15 K]
DOCKED: USER    
DOCKED: USER    (1) Final Intermolecular Energy     =  -15.89 kcal/mol
DOCKED: USER        vdW + Hbond + desolv Energy     =  -12.84 kcal/mol
DOCKED: USER        Electrostatic Energy            =   -3.05 kcal/mol
DOCKED: USER    (2) Final Total Internal Energy     =   -0.51 kcal/mol
DOCKED: USER    (3) Torsional Free Energy           =   +2.98 kcal/mol
DOCKED: USER    (4) Unbound System's Energy  [=(2)] =   -0.51 kcal/mol
DOCKED: USER    
DOCKED: USER    
DOCKED: USER    NEWDPF move heme_Fe_opt.pdbqt
DOCKED: USER    NEWDPF about -0.174000 -0.001000 -0.047000
DOCKED: USER    NEWDPF tran0 9.122033 12.019513 30.623284
DOCKED: USER    NEWDPF quaternion0 -0.558760 -0.164748 0.811851 0.039299
DOCKED: USER    NEWDPF axisangle0 -0.559192 -0.164875 0.812478 175.495452
DOCKED: USER    NEWDPF quat0 -0.559192 -0.164875 0.812478 175.495452
DOCKED: USER    NEWDPF dihe0 66.32 -109.90 35.28 -160.53 -105.16 -152.50 55.65 -54.10 -180.00 -42.68 
DOCKED: USER  keepresnum = 1 
DOCKED: USER  
DOCKED: REMARK  10 active torsions:
DOCKED: REMARK  status: ('A' for Active; 'I' for Inactive)
DOCKED: REMARK    1  A    between atoms: C_6  and  C_10 
DOCKED: REMARK    2  A    between atoms: C_10  and  C_11 
DOCKED: REMARK    3  A    between atoms: C_11  and  C_12 
DOCKED: REMARK    4  A    between atoms: C_12  and  O_14 
DOCKED: REMARK    5  A    between atoms: C_17  and  C_20 
DOCKED: REMARK    6  A    between atoms: C_24  and  C_27 
DOCKED: REMARK    7  A    between atoms: C_31  and  C_34 
DOCKED: REMARK    8  A    between atoms: C_34  and  C_35 
DOCKED: REMARK    9  A    between atoms: C_35  and  C_36 
DOCKED: REMARK   10  A    between atoms: C_36  and  O_38 
DOCKED: USER                              x       y       z     vdW  Elec       q    Type
DOCKED: USER                           _______ _______ _______ _____ _____    ______ ____
DOCKED: ROOT
DOCKED: ATOM      1  C   UNL d   1       9.370  11.671  32.630 -0.24 +0.03    +0.064 C 
DOCKED: ATOM      2  C   UNL d   1       7.358  15.305  29.951 -0.32 +0.02    +0.064 A 
DOCKED: ATOM      3  C   UNL d   1       7.388  12.405  26.123 -0.40 +0.00    +0.064 C 
DOCKED: ATOM      4  C   UNL d   1       9.431   8.910  28.671 -0.45 +0.01    +0.064 C 
DOCKED: ATOM      5  C   UNL d   1       8.878  12.991  32.211 -0.25 +0.03    +0.066 A 
DOCKED: ATOM      6  C   UNL d   1       8.832  14.112  33.022 -0.21 -0.01    -0.021 A 
DOCKED: ATOM      7  C   UNL d   1       8.270  15.120  32.279 -0.23 -0.01    -0.025 A 
DOCKED: ATOM      8  C   UNL d   1       7.994  14.574  31.040 -0.28 +0.02    +0.066 A 
DOCKED: ATOM      9  C   UNL d   1       8.034  16.528  32.734 -0.22 +0.03    +0.051 C 
DOCKED: ATOM     10  C   UNL d   1       7.133  14.820  28.729 -0.37 +0.01    +0.066 A 
DOCKED: ATOM     11  C   UNL d   1       6.419  15.505  27.742 -0.47 -0.00    -0.021 A 
DOCKED: ATOM     12  C   UNL d   1       6.399  14.682  26.633 -0.44 +0.00    +0.000 A 
DOCKED: ATOM     13  C   UNL d   1       7.101  13.523  27.007 -0.34 +0.01    +0.070 A 
DOCKED: ATOM     14  C   UNL d   1       5.731  16.848  27.872 -0.40 +0.00    +0.052 C 
DOCKED: ATOM     15  C   UNL d   1       8.018  11.265  26.492 -0.32 +0.00    +0.066 A 
DOCKED: ATOM     16  C   UNL d   1       8.361  10.262  25.594 -0.39 -0.00    -0.021 A 
DOCKED: ATOM     17  C   UNL d   1       8.947   9.252  26.328 -0.43 +0.00    +0.000 A 
DOCKED: ATOM     18  C   UNL d   1       8.944   9.661  27.659 -0.38 +0.01    +0.070 A 
DOCKED: ATOM     19  C   UNL d   1       8.125  10.241  24.108 -0.38 +0.00    +0.052 C 
DOCKED: ATOM     20  C   UNL d   1       9.501   9.333  30.075 -0.41 +0.02    +0.066 A 
DOCKED: ATOM     21  C   UNL d   1       9.813   8.498  31.158 -0.46 -0.01    -0.025 A 
DOCKED: ATOM     22  C   UNL d   1       9.803   9.309  32.274 -0.38 -0.01    -0.021 A 
DOCKED: ATOM     23  C   UNL d   1       9.479  10.597  31.833 -0.26 +0.03    +0.066 A 
DOCKED: ATOM     24  C   UNL d   1      10.104   7.016  31.153 +0.16 +0.01    +0.051 C 
DOCKED: ATOM     25  N   UNL d   1       8.374  13.281  30.999 -0.19 -0.09    -0.248 N 
DOCKED: ATOM     26  N   UNL d   1       7.541  13.603  28.287 -0.22 -0.03    -0.248 N 
DOCKED: ATOM     27  N   UNL d   1       8.413  10.917  27.756 -0.23 -0.03    -0.248 N 
DOCKED: ATOM     28  N   UNL d   1       9.252  10.596  30.496 -0.23 -0.07    -0.248 N 
DOCKED: ATOM     29 FE   UNL d   1       8.397  12.098  29.391 -0.08 +0.00    +0.000 Fe
DOCKED: ENDROOT
DOCKED: BRANCH   6  30
DOCKED: ATOM     30  C   UNL d   1       9.318  14.229  34.427 -0.18 +0.04    +0.052 C 
DOCKED: BRANCH  30  31
DOCKED: ATOM     31  C   UNL d   1       8.204  13.894  35.413 -0.11 +0.11    +0.115 C 
DOCKED: BRANCH  31  32
DOCKED: ATOM     32  C   UNL d   1       7.995  15.029  36.376 -0.07 +0.15    +0.139 C 
DOCKED: ATOM     33  O   UNL d   1       8.388  14.947  37.531 +0.02 -0.48    -0.650 OA
DOCKED: BRANCH  32  34
DOCKED: ATOM     34  O   UNL d   1       7.370  16.149  35.974 -0.44 -1.22    -0.776 OA
DOCKED: ATOM     35  H   UNL d   1       7.869  16.977  35.934 +0.01 +0.15    +0.167 HD
DOCKED: ENDBRANCH  32  34
DOCKED: ENDBRANCH  31  32
DOCKED: ENDBRANCH  30  31
DOCKED: ENDBRANCH   6  30
DOCKED: BRANCH  22  36
DOCKED: ATOM     36  C   UNL d   1      10.042   8.857  33.691 -0.39 +0.03    +0.052 C 
DOCKED: BRANCH  36  37
DOCKED: ATOM     37  C   UNL d   1      11.368   8.117  33.777 -0.37 +0.07    +0.115 C 
DOCKED: BRANCH  37  38
DOCKED: ATOM     38  C   UNL d   1      12.259   8.728  34.821 -0.17 +0.18    +0.139 C 
DOCKED: ATOM     39  O   UNL d   1      13.476   8.648  34.730 -0.32 -1.07    -0.650 OA
DOCKED: BRANCH  38  40
DOCKED: ATOM     40  O   UNL d   1      11.719   9.370  35.873 +0.08 -1.14    -0.776 OA
DOCKED: ATOM     41  H   UNL d   1      11.251   8.856  36.547 +0.05 +0.14    +0.167 HD
DOCKED: ENDBRANCH  38  40
DOCKED: ENDBRANCH  37  38
DOCKED: ENDBRANCH  36  37
DOCKED: ENDBRANCH  22  36
DOCKED: BRANCH  12  42
DOCKED: ATOM     42  C   UNL d   1       5.730  15.010  25.337 -0.51 +0.00    +0.004 C 
DOCKED: ATOM     43  C   UNL d   1       6.344  15.764  24.415 -0.55 +0.00    +0.012 C 
DOCKED: ENDBRANCH  12  42
DOCKED: BRANCH  17  44
DOCKED: ATOM     44  C   UNL d   1       9.493   7.987  25.787 -0.50 +0.00    +0.004 C 
DOCKED: ATOM     45  C   UNL d   1       8.849   6.829  25.969 -0.60 +0.00    +0.012 C 
DOCKED: ENDBRANCH  17  44
DOCKED: TORSDOF 10
DOCKED: TER
DOCKED: ENDMDL
________________________________________________________________________________


	BEGINNING GENETIC ALGORITHM DOCKING 16 of 100
Run: 16 Seed: 1543834593 639989063 [ Run 16 of 100 GA/GALS ]
Beginning LAMARCKIAN GENETIC ALGORITHM (LGA), with a maximum of 25000000 energy evaluations.

Final-Value: -18.353


	FINAL GENETIC ALGORITHM DOCKED STATE
	_______________________________________________


Detailed state:  trans 2.813 -6.663 -4.291 quatxyzw 0.274026 0.712697 0.087756 0.639743 center -0.174 -0.001 -0.047 ntor 10 -5.6087 95.2022 93.3500 -140.0935 0.1302 -90.6205 -66.3813 35.1643 -176.6463 -173.7029
State:	  2.813  -6.663  -4.291   0.357  0.927  0.114 100.455     -5.61   95.20   93.35 -140.09    0.13  -90.62  -66.38   35.16 -176.65 -173.70

DOCKED: MODEL       16
DOCKED: USER    Run = 16
DOCKED: USER    DPF = D:/Protein_go_brrr/autodock/final/1A3N/heme_Fe/dock.dpf
DOCKED: USER  
DOCKED: USER    Estimated Free Energy of Binding    =  -13.37 kcal/mol  [=(1)+(2)+(3)-(4)]
DOCKED: USER    Estimated Inhibition Constant, Ki   =  159.37 pM (picomolar)  [Temperature = 298.15 K]
DOCKED: USER    
DOCKED: USER    (1) Final Intermolecular Energy     =  -16.35 kcal/mol
DOCKED: USER        vdW + Hbond + desolv Energy     =  -14.39 kcal/mol
DOCKED: USER        Electrostatic Energy            =   -1.96 kcal/mol
DOCKED: USER    (2) Final Total Internal Energy     =   -2.00 kcal/mol
DOCKED: USER    (3) Torsional Free Energy           =   +2.98 kcal/mol
DOCKED: USER    (4) Unbound System's Energy  [=(2)] =   -2.00 kcal/mol
DOCKED: USER    
DOCKED: USER    
DOCKED: USER    NEWDPF move heme_Fe_opt.pdbqt
DOCKED: USER    NEWDPF about -0.174000 -0.001000 -0.047000
DOCKED: USER    NEWDPF tran0 2.812568 -6.663367 -4.291090
DOCKED: USER    NEWDPF quaternion0 0.274026 0.712697 0.087756 0.639743
DOCKED: USER    NEWDPF axisangle0 0.356532 0.927280 0.114178 100.454672
DOCKED: USER    NEWDPF quat0 0.356532 0.927280 0.114178 100.454672
DOCKED: USER    NEWDPF dihe0 -5.61 95.20 93.35 -140.09 0.13 -90.62 -66.38 35.16 -176.65 -173.70 
DOCKED: USER  keepresnum = 1 
DOCKED: USER  
DOCKED: REMARK  10 active torsions:
DOCKED: REMARK  status: ('A' for Active; 'I' for Inactive)
DOCKED: REMARK    1  A    between atoms: C_6  and  C_10 
DOCKED: REMARK    2  A    between atoms: C_10  and  C_11 
DOCKED: REMARK    3  A    between atoms: C_11  and  C_12 
DOCKED: REMARK    4  A    between atoms: C_12  and  O_14 
DOCKED: REMARK    5  A    between atoms: C_17  and  C_20 
DOCKED: REMARK    6  A    between atoms: C_24  and  C_27 
DOCKED: REMARK    7  A    between atoms: C_31  and  C_34 
DOCKED: REMARK    8  A    between atoms: C_34  and  C_35 
DOCKED: REMARK    9  A    between atoms: C_35  and  C_36 
DOCKED: REMARK   10  A    between atoms: C_36  and  O_38 
DOCKED: USER                              x       y       z     vdW  Elec       q    Type
DOCKED: USER                           _______ _______ _______ _____ _____    ______ ____
DOCKED: ROOT
DOCKED: ATOM      1  C   UNL d   1       2.385  -7.011  -6.268 -0.31 +0.02    +0.064 C 
DOCKED: ATOM      2  C   UNL d   1       0.767  -8.861  -1.980 -0.40 +0.00    +0.064 A 
DOCKED: ATOM      3  C   UNL d   1       2.781  -5.147   0.304 -0.41 +0.00    +0.064 C 
DOCKED: ATOM      4  C   UNL d   1       4.447  -3.395  -3.824 -0.49 +0.01    +0.064 C 
DOCKED: ATOM      5  C   UNL d   1       1.814  -7.920  -5.265 -0.32 +0.01    +0.066 A 
DOCKED: ATOM      6  C   UNL d   1       1.246  -9.152  -5.546 -0.31 -0.00    -0.021 A 
DOCKED: ATOM      7  C   UNL d   1       0.793  -9.663  -4.355 -0.33 -0.00    -0.025 A 
DOCKED: ATOM      8  C   UNL d   1       1.104  -8.723  -3.391 -0.30 +0.01    +0.066 A 
DOCKED: ATOM      9  C   UNL d   1       0.120 -10.987  -4.162 -0.18 +0.00    +0.051 C 
DOCKED: ATOM     10  C   UNL d   1       1.105  -7.997  -1.022 -0.38 +0.00    +0.066 A 
DOCKED: ATOM     11  C   UNL d   1       0.669  -8.098   0.302 -0.43 -0.00    -0.021 A 
DOCKED: ATOM     12  C   UNL d   1       1.223  -7.029   0.978 -0.35 +0.00    +0.000 A 
DOCKED: ATOM     13  C   UNL d   1       1.968  -6.319   0.020 -0.37 +0.00    +0.070 A 
DOCKED: ATOM     14  C   UNL d   1      -0.284  -9.125   0.880 -0.60 -0.00    +0.052 C 
DOCKED: ATOM     15  C   UNL d   1       3.459  -4.430  -0.624 -0.37 +0.00    +0.066 A 
DOCKED: ATOM     16  C   UNL d   1       4.304  -3.377  -0.299 -0.47 -0.00    -0.021 A 
DOCKED: ATOM     17  C   UNL d   1       4.783  -2.868  -1.489 -0.48 +0.00    +0.000 A 
DOCKED: ATOM     18  C   UNL d   1       4.214  -3.621  -2.513 -0.39 +0.00    +0.070 A 
DOCKED: ATOM     19  C   UNL d   1       4.631  -2.851   1.072 -0.46 +0.00    +0.052 C 
DOCKED: ATOM     20  C   UNL d   1       3.916  -4.205  -4.926 -0.41 +0.01    +0.066 A 
DOCKED: ATOM     21  C   UNL d   1       3.983  -3.868  -6.285 -0.43 -0.00    -0.025 A 
DOCKED: ATOM     22  C   UNL d   1       3.401  -4.918  -6.964 -0.34 -0.00    -0.021 A 
DOCKED: ATOM     23  C   UNL d   1       2.997  -5.847  -5.998 -0.30 +0.01    +0.066 A 
DOCKED: ATOM     24  C   UNL d   1       4.559  -2.624  -6.921 -0.36 +0.00    +0.051 C 
DOCKED: ATOM     25  N   UNL d   1       1.733  -7.668  -3.946 -0.20 -0.02    -0.248 N 
DOCKED: ATOM     26  N   UNL d   1       1.889  -6.904  -1.200 -0.25 -0.00    -0.248 N 
DOCKED: ATOM     27  N   UNL d   1       3.434  -4.610  -1.981 -0.23 -0.01    -0.248 N 
DOCKED: ATOM     28  N   UNL d   1       3.274  -5.386  -4.754 -0.24 -0.05    -0.248 N 
DOCKED: ATOM     29 FE   UNL d   1       2.582  -6.143  -2.977 -0.09 -0.00    +0.000 Fe
DOCKED: ENDROOT
DOCKED: BRANCH   6  30
DOCKED: ATOM     30  C   UNL d   1       1.155  -9.820  -6.875 -0.24 +0.01    +0.052 C 
DOCKED: BRANCH  30  31
DOCKED: ATOM     31  C   UNL d   1      -0.103  -9.381  -7.616 -0.18 +0.05    +0.115 C 
DOCKED: BRANCH  31  32
DOCKED: ATOM     32  C   UNL d   1       0.258  -8.588  -8.841 -0.16 +0.09    +0.139 C 
DOCKED: ATOM     33  O   UNL d   1       1.429  -8.377  -9.124 +0.01 -0.28    -0.650 OA
DOCKED: BRANCH  32  34
DOCKED: ATOM     34  O   UNL d   1      -0.707  -8.103  -9.640 -0.02 -0.92    -0.776 OA
DOCKED: ATOM     35  H   UNL d   1      -0.461  -7.527 -10.377 +0.02 +0.21    +0.167 HD
DOCKED: ENDBRANCH  32  34
DOCKED: ENDBRANCH  31  32
DOCKED: ENDBRANCH  30  31
DOCKED: ENDBRANCH   6  30
DOCKED: BRANCH  22  36
DOCKED: ATOM     36  C   UNL d   1       3.201  -4.999  -8.455 -0.29 +0.01    +0.052 C 
DOCKED: BRANCH  36  37
DOCKED: ATOM     37  C   UNL d   1       2.026  -4.122  -8.863 -0.32 +0.04    +0.115 C 
DOCKED: BRANCH  37  38
DOCKED: ATOM     38  C   UNL d   1       1.276  -4.728 -10.015 -0.23 +0.09    +0.139 C 
DOCKED: ATOM     39  O   UNL d   1       1.574  -4.457 -11.168 +0.03 -0.30    -0.650 OA
DOCKED: BRANCH  38  40
DOCKED: ATOM     40  O   UNL d   1       0.260  -5.578  -9.781 -0.45 -1.17    -0.776 OA
DOCKED: ATOM     41  H   UNL d   1       0.455  -6.515  -9.638 +0.04 +0.21    +0.167 HD
DOCKED: ENDBRANCH  38  40
DOCKED: ENDBRANCH  37  38
DOCKED: ENDBRANCH  36  37
DOCKED: ENDBRANCH  22  36
DOCKED: BRANCH  12  42
DOCKED: ATOM     42  C   UNL d   1       1.015  -6.733   2.429 -0.51 +0.00    +0.004 C 
DOCKED: ATOM     43  C   UNL d   1       2.017  -6.276   3.190 -0.55 +0.00    +0.012 C 
DOCKED: ENDBRANCH  12  42
DOCKED: BRANCH  17  44
DOCKED: ATOM     44  C   UNL d   1       5.739  -1.747  -1.635 -0.63 +0.00    +0.004 C 
DOCKED: ATOM     45  C   UNL d   1       5.310  -0.481  -1.664 -0.68 +0.00    +0.012 C 
DOCKED: ENDBRANCH  17  44
DOCKED: TORSDOF 10
DOCKED: TER
DOCKED: ENDMDL
________________________________________________________________________________


	BEGINNING GENETIC ALGORITHM DOCKING 17 of 100
Run: 17 Seed: 189215510 1556495978 [ Run 17 of 100 GA/GALS ]
Beginning LAMARCKIAN GENETIC ALGORITHM (LGA), with a maximum of 25000000 energy evaluations.

Final-Value: -18.237


	FINAL GENETIC ALGORITHM DOCKED STATE
	_______________________________________________


Detailed state:  trans 1.942 -6.507 -5.082 quatxyzw -0.719619 0.081704 -0.622578 0.296428 center -0.174 -0.001 -0.047 ntor 10 90.4269 -60.4217 61.4873 -119.3633 -142.0241 24.0515 81.6722 -61.4629 10.4315 0.7700
State:	  1.942  -6.507  -5.082  -0.753  0.086 -0.652 145.514     90.43  -60.42   61.49 -119.36 -142.02   24.05   81.67  -61.46   10.43    0.77

DOCKED: MODEL       17
DOCKED: USER    Run = 17
DOCKED: USER    DPF = D:/Protein_go_brrr/autodock/final/1A3N/heme_Fe/dock.dpf
DOCKED: USER  
DOCKED: USER    Estimated Free Energy of Binding    =  -13.21 kcal/mol  [=(1)+(2)+(3)-(4)]
DOCKED: USER    Estimated Inhibition Constant, Ki   =  208.62 pM (picomolar)  [Temperature = 298.15 K]
DOCKED: USER    
DOCKED: USER    (1) Final Intermolecular Energy     =  -16.19 kcal/mol
DOCKED: USER        vdW + Hbond + desolv Energy     =  -13.80 kcal/mol
DOCKED: USER        Electrostatic Energy            =   -2.39 kcal/mol
DOCKED: USER    (2) Final Total Internal Energy     =   -2.05 kcal/mol
DOCKED: USER    (3) Torsional Free Energy           =   +2.98 kcal/mol
DOCKED: USER    (4) Unbound System's Energy  [=(2)] =   -2.05 kcal/mol
DOCKED: USER    
DOCKED: USER    
DOCKED: USER    NEWDPF move heme_Fe_opt.pdbqt
DOCKED: USER    NEWDPF about -0.174000 -0.001000 -0.047000
DOCKED: USER    NEWDPF tran0 1.941798 -6.506852 -5.081592
DOCKED: USER    NEWDPF quaternion0 -0.719619 0.081704 -0.622578 0.296428
DOCKED: USER    NEWDPF axisangle0 -0.753484 0.085549 -0.651876 145.513603
DOCKED: USER    NEWDPF quat0 -0.753484 0.085549 -0.651876 145.513603
DOCKED: USER    NEWDPF dihe0 90.43 -60.42 61.49 -119.36 -142.02 24.05 81.67 -61.46 10.43 0.77 
DOCKED: USER  keepresnum = 1 
DOCKED: USER  
DOCKED: REMARK  10 active torsions:
DOCKED: REMARK  status: ('A' for Active; 'I' for Inactive)
DOCKED: REMARK    1  A    between atoms: C_6  and  C_10 
DOCKED: REMARK    2  A    between atoms: C_10  and  C_11 
DOCKED: REMARK    3  A    between atoms: C_11  and  C_12 
DOCKED: REMARK    4  A    between atoms: C_12  and  O_14 
DOCKED: REMARK    5  A    between atoms: C_17  and  C_20 
DOCKED: REMARK    6  A    between atoms: C_24  and  C_27 
DOCKED: REMARK    7  A    between atoms: C_31  and  C_34 
DOCKED: REMARK    8  A    between atoms: C_34  and  C_35 
DOCKED: REMARK    9  A    between atoms: C_35  and  C_36 
DOCKED: REMARK   10  A    between atoms: C_36  and  O_38 
DOCKED: USER                              x       y       z     vdW  Elec       q    Type
DOCKED: USER                           _______ _______ _______ _____ _____    ______ ____
DOCKED: ROOT
DOCKED: ATOM      1  C   UNL d   1       2.003  -7.238  -6.998 -0.28 +0.02    +0.064 C 
DOCKED: ATOM      2  C   UNL d   1       4.229  -3.521  -4.619 -0.42 +0.01    +0.064 A 
DOCKED: ATOM      3  C   UNL d   1       2.848  -5.456  -0.446 -0.43 +0.00    +0.064 C 
DOCKED: ATOM      4  C   UNL d   1       0.597  -9.005  -2.731 -0.44 +0.00    +0.064 C 
DOCKED: ATOM      5  C   UNL d   1       2.686  -5.968  -6.718 -0.16 +0.02    +0.066 A 
DOCKED: ATOM      6  C   UNL d   1       3.128  -5.078  -7.684 -0.31 -0.01    -0.021 A 
DOCKED: ATOM      7  C   UNL d   1       3.749  -4.048  -7.023 -0.39 -0.00    -0.025 A 
DOCKED: ATOM      8  C   UNL d   1       3.662  -4.349  -5.677 -0.38 +0.01    +0.066 A 
DOCKED: ATOM      9  C   UNL d   1       4.370  -2.840  -7.655 -0.42 -0.00    +0.051 C 
DOCKED: ATOM     10  C   UNL d   1       4.109  -3.758  -3.312 -0.40 +0.01    +0.066 A 
DOCKED: ATOM     11  C   UNL d   1       4.759  -3.011  -2.327 -0.46 -0.00    -0.021 A 
DOCKED: ATOM     12  C   UNL d   1       4.391  -3.560  -1.114 -0.46 +0.00    +0.000 A 
DOCKED: ATOM     13  C   UNL d   1       3.533  -4.629  -1.426 -0.36 +0.00    +0.070 A 
DOCKED: ATOM     14  C   UNL d   1       5.739  -1.873  -2.532 -0.56 +0.00    +0.052 C 
DOCKED: ATOM     15  C   UNL d   1       2.062  -6.518  -0.741 -0.36 +0.00    +0.066 A 
DOCKED: ATOM     16  C   UNL d   1       1.345  -7.222   0.219 -0.40 -0.00    -0.021 A 
DOCKED: ATOM     17  C   UNL d   1       0.698  -8.248  -0.438 -0.46 +0.00    +0.000 A 
DOCKED: ATOM     18  C   UNL d   1       1.039  -8.149  -1.785 -0.35 +0.00    +0.070 A 
DOCKED: ATOM     19  C   UNL d   1       1.289  -6.957   1.699 -0.45 +0.00    +0.052 C 
DOCKED: ATOM     20  C   UNL d   1       0.885  -8.896  -4.166 -0.33 +0.01    +0.066 A 
DOCKED: ATOM     21  C   UNL d   1       0.604  -9.879  -5.126 -0.29 -0.00    -0.025 A 
DOCKED: ATOM     22  C   UNL d   1       1.001  -9.349  -6.336 -0.26 -0.01    -0.021 A 
DOCKED: ATOM     23  C   UNL d   1       1.512  -8.074  -6.068 -0.29 +0.02    +0.066 A 
DOCKED: ATOM     24  C   UNL d   1      -0.002 -11.248  -4.924 -0.18 +0.01    +0.051 C 
DOCKED: ATOM     25  N   UNL d   1       3.006  -5.512  -5.495 -0.23 -0.06    -0.248 N 
DOCKED: ATOM     26  N   UNL d   1       3.368  -4.756  -2.766 -0.24 -0.02    -0.248 N 
DOCKED: ATOM     27  N   UNL d   1       1.842  -7.060  -1.979 -0.21 +0.00    -0.248 N 
DOCKED: ATOM     28  N   UNL d   1       1.480  -7.821  -4.737 -0.23 -0.04    -0.248 N 
DOCKED: ATOM     29 FE   UNL d   1       2.423  -6.290  -3.751 -0.08 +0.00    +0.000 Fe
DOCKED: ENDROOT
DOCKED: BRANCH   6  30
DOCKED: ATOM     30  C   UNL d   1       2.951  -5.189  -9.160 -0.23 +0.01    +0.052 C 
DOCKED: BRANCH  30  31
DOCKED: ATOM     31  C   UNL d   1       1.791  -4.319  -9.632 -0.26 +0.05    +0.115 C 
DOCKED: BRANCH  31  32
DOCKED: ATOM     32  C   UNL d   1       0.547  -5.148  -9.801 -0.10 +0.16    +0.139 C 
DOCKED: ATOM     33  O   UNL d   1      -0.224  -4.932 -10.725 -0.24 -0.89    -0.650 OA
DOCKED: BRANCH  32  34
DOCKED: ATOM     34  O   UNL d   1       0.272  -6.137  -8.934 -0.28 -1.18    -0.776 OA
DOCKED: ATOM     35  H   UNL d   1       0.610  -7.025  -9.113 +0.04 +0.17    +0.167 HD
DOCKED: ENDBRANCH  32  34
DOCKED: ENDBRANCH  31  32
DOCKED: ENDBRANCH  30  31
DOCKED: ENDBRANCH   6  30
DOCKED: BRANCH  22  36
DOCKED: ATOM     36  C   UNL d   1       0.937 -10.051  -7.667 -0.19 +0.01    +0.052 C 
DOCKED: BRANCH  36  37
DOCKED: ATOM     37  C   UNL d   1      -0.316  -9.621  -8.415 -0.15 +0.05    +0.115 C 
DOCKED: BRANCH  37  38
DOCKED: ATOM     38  C   UNL d   1       0.035  -8.925  -9.700 -0.12 +0.08    +0.139 C 
DOCKED: ATOM     39  O   UNL d   1       1.108  -9.130 -10.249 +0.02 -0.23    -0.650 OA
DOCKED: BRANCH  38  40
DOCKED: ATOM     40  O   UNL d   1      -0.834  -8.062 -10.255 -0.11 -0.87    -0.776 OA
DOCKED: ATOM     41  H   UNL d   1      -0.569  -7.140 -10.377 +0.02 +0.27    +0.167 HD
DOCKED: ENDBRANCH  38  40
DOCKED: ENDBRANCH  37  38
DOCKED: ENDBRANCH  36  37
DOCKED: ENDBRANCH  22  36
DOCKED: BRANCH  12  42
DOCKED: ATOM     42  C   UNL d   1       4.862  -3.079   0.221 -0.52 +0.00    +0.004 C 
DOCKED: ATOM     43  C   UNL d   1       4.030  -2.447   1.059 -0.64 +0.00    +0.012 C 
DOCKED: ENDBRANCH  12  42
DOCKED: BRANCH  17  44
DOCKED: ATOM     44  C   UNL d   1      -0.204  -9.246   0.180 -0.58 -0.00    +0.004 C 
DOCKED: ATOM     45  C   UNL d   1       0.260 -10.132   1.068 -0.64 -0.00    +0.012 C 
DOCKED: ENDBRANCH  17  44
DOCKED: TORSDOF 10
DOCKED: TER
DOCKED: ENDMDL
________________________________________________________________________________


	BEGINNING GENETIC ALGORITHM DOCKING 18 of 100
Run: 18 Seed: 1498793382 1023449708 [ Run 18 of 100 GA/GALS ]
Beginning LAMARCKIAN GENETIC ALGORITHM (LGA), with a maximum of 25000000 energy evaluations.

Final-Value: -13.467


	FINAL GENETIC ALGORITHM DOCKED STATE
	_______________________________________________


Detailed state:  trans 19.022 12.178 15.341 quatxyzw -0.220995 0.330439 0.828332 0.394763 center -0.174 -0.001 -0.047 ntor 10 99.3961 -95.6265 -173.3169 -92.8079 -157.0639 153.3667 -46.1118 -79.7110 -153.6017 -13.0028
State:	 19.022  12.178  15.341  -0.241  0.360  0.902 133.498     99.40  -95.63 -173.32  -92.81 -157.06  153.37  -46.11  -79.71 -153.60  -13.00

DOCKED: MODEL       18
DOCKED: USER    Run = 18
DOCKED: USER    DPF = D:/Protein_go_brrr/autodock/final/1A3N/heme_Fe/dock.dpf
DOCKED: USER  
DOCKED: USER    Estimated Free Energy of Binding    =   -8.77 kcal/mol  [=(1)+(2)+(3)-(4)]
DOCKED: USER    Estimated Inhibition Constant, Ki   =  374.98 nM (nanomolar)  [Temperature = 298.15 K]
DOCKED: USER    
DOCKED: USER    (1) Final Intermolecular Energy     =  -11.75 kcal/mol
DOCKED: USER        vdW + Hbond + desolv Energy     =   -8.52 kcal/mol
DOCKED: USER        Electrostatic Energy            =   -3.23 kcal/mol
DOCKED: USER    (2) Final Total Internal Energy     =   -1.72 kcal/mol
DOCKED: USER    (3) Torsional Free Energy           =   +2.98 kcal/mol
DOCKED: USER    (4) Unbound System's Energy  [=(2)] =   -1.72 kcal/mol
DOCKED: USER    
DOCKED: USER    
DOCKED: USER    NEWDPF move heme_Fe_opt.pdbqt
DOCKED: USER    NEWDPF about -0.174000 -0.001000 -0.047000
DOCKED: USER    NEWDPF tran0 19.021645 12.178021 15.340695
DOCKED: USER    NEWDPF quaternion0 -0.220995 0.330439 0.828332 0.394763
DOCKED: USER    NEWDPF axisangle0 -0.240530 0.359648 0.901553 133.497666
DOCKED: USER    NEWDPF quat0 -0.240530 0.359648 0.901553 133.497666
DOCKED: USER    NEWDPF dihe0 99.40 -95.63 -173.32 -92.81 -157.06 153.37 -46.11 -79.71 -153.60 -13.00 
DOCKED: USER  keepresnum = 1 
DOCKED: USER  
DOCKED: REMARK  10 active torsions:
DOCKED: REMARK  status: ('A' for Active; 'I' for Inactive)
DOCKED: REMARK    1  A    between atoms: C_6  and  C_10 
DOCKED: REMARK    2  A    between atoms: C_10  and  C_11 
DOCKED: REMARK    3  A    between atoms: C_11  and  C_12 
DOCKED: REMARK    4  A    between atoms: C_12  and  O_14 
DOCKED: REMARK    5  A    between atoms: C_17  and  C_20 
DOCKED: REMARK    6  A    between atoms: C_24  and  C_27 
DOCKED: REMARK    7  A    between atoms: C_31  and  C_34 
DOCKED: REMARK    8  A    between atoms: C_34  and  C_35 
DOCKED: REMARK    9  A    between atoms: C_35  and  C_36 
DOCKED: REMARK   10  A    between atoms: C_36  and  O_38 
DOCKED: USER                              x       y       z     vdW  Elec       q    Type
DOCKED: USER                           _______ _______ _______ _____ _____    ______ ____
DOCKED: ROOT
DOCKED: ATOM      1  C   UNL d   1      19.828  13.989  15.870 -0.19 +0.02    +0.064 C 
DOCKED: ATOM      2  C   UNL d   1      16.104  12.558  12.953 -0.14 +0.00    +0.064 A 
DOCKED: ATOM      3  C   UNL d   1      16.284   8.205  14.976 -0.14 +0.06    +0.064 C 
DOCKED: ATOM      4  C   UNL d   1      19.958   9.538  17.734 -0.33 +0.02    +0.064 C 
DOCKED: ATOM      5  C   UNL d   1      18.819  13.965  14.803 -0.12 +0.01    +0.066 A 
DOCKED: ATOM      6  C   UNL d   1      18.565  15.010  13.930 -0.15 -0.00    -0.021 A 
DOCKED: ATOM      7  C   UNL d   1      17.528  14.613  13.123 -0.10 -0.00    -0.025 A 
DOCKED: ATOM      8  C   UNL d   1      17.188  13.339  13.534 -0.16 +0.01    +0.066 A 
DOCKED: ATOM      9  C   UNL d   1      16.919  15.412  12.011 -0.06 +0.01    +0.051 C 
DOCKED: ATOM     10  C   UNL d   1      15.793  11.305  13.292 -0.10 +0.01    +0.066 A 
DOCKED: ATOM     11  C   UNL d   1      14.677  10.624  12.799 -0.08 -0.01    -0.021 A 
DOCKED: ATOM     12  C   UNL d   1      14.697   9.371  13.380 -0.09 +0.00    +0.000 A 
DOCKED: ATOM     13  C   UNL d   1      15.830   9.357  14.212 -0.09 +0.04    +0.070 A 
DOCKED: ATOM     14  C   UNL d   1      13.606  11.163  11.873 -0.10 +0.01    +0.052 C 
DOCKED: ATOM     15  C   UNL d   1      17.344   8.202  15.818 -0.18 +0.04    +0.066 A 
DOCKED: ATOM     16  C   UNL d   1      17.805   7.055  16.452 -0.24 -0.01    -0.021 A 
DOCKED: ATOM     17  C   UNL d   1      18.863   7.438  17.251 -0.21 +0.00    +0.000 A 
DOCKED: ATOM     18  C   UNL d   1      19.020   8.812  17.088 -0.16 +0.02    +0.070 A 
DOCKED: ATOM     19  C   UNL d   1      17.260   5.657  16.333 -0.34 +0.02    +0.052 C 
DOCKED: ATOM     20  C   UNL d   1      20.192  10.974  17.541 -0.26 +0.02    +0.066 A 
DOCKED: ATOM     21  C   UNL d   1      21.019  11.775  18.342 -0.43 -0.01    -0.025 A 
DOCKED: ATOM     22  C   UNL d   1      20.977  13.036  17.786 -0.35 -0.01    -0.021 A 
DOCKED: ATOM     23  C   UNL d   1      20.126  12.958  16.677 -0.18 +0.02    +0.066 A 
DOCKED: ATOM     24  C   UNL d   1      21.808  11.384  19.571 -0.26 +0.02    +0.051 C 
DOCKED: ATOM     25  N   UNL d   1      17.981  12.944  14.550 -0.07 -0.03    -0.248 N 
DOCKED: ATOM     26  N   UNL d   1      16.493  10.538  14.166 -0.04 -0.08    -0.248 N 
DOCKED: ATOM     27  N   UNL d   1      18.115   9.276  16.174 -0.09 -0.08    -0.248 N 
DOCKED: ATOM     28  N   UNL d   1      19.615  11.708  16.559 -0.07 -0.05    -0.248 N 
DOCKED: ATOM     29 FE   UNL d   1      18.055  11.122  15.364 -0.04 +0.00    +0.000 Fe
DOCKED: ENDROOT
DOCKED: BRANCH   6  30
DOCKED: ATOM     30  C   UNL d   1      19.284  16.313  13.852 -0.15 +0.02    +0.052 C 
DOCKED: BRANCH  30  31
DOCKED: ATOM     31  C   UNL d   1      19.088  17.118  15.132 -0.19 +0.06    +0.115 C 
DOCKED: BRANCH  31  32
DOCKED: ATOM     32  C   UNL d   1      20.399  17.681  15.606 -0.18 +0.15    +0.139 C 
DOCKED: ATOM     33  O   UNL d   1      20.558  17.988  16.779 -0.47 -0.83    -0.650 OA
DOCKED: BRANCH  32  34
DOCKED: ATOM     34  O   UNL d   1      21.412  17.853  14.740 -0.08 -1.20    -0.776 OA
DOCKED: ATOM     35  H   UNL d   1      21.959  17.093  14.500 +0.06 +0.24    +0.167 HD
DOCKED: ENDBRANCH  32  34
DOCKED: ENDBRANCH  31  32
DOCKED: ENDBRANCH  30  31
DOCKED: ENDBRANCH   6  30
DOCKED: BRANCH  22  36
DOCKED: ATOM     36  C   UNL d   1      21.678  14.257  18.320 -0.52 +0.01    +0.052 C 
DOCKED: BRANCH  36  37
DOCKED: ATOM     37  C   UNL d   1      23.115  14.284  17.822 -0.40 +0.03    +0.115 C 
DOCKED: BRANCH  37  38
DOCKED: ATOM     38  C   UNL d   1      23.260  15.208  16.646 -0.25 +0.16    +0.139 C 
DOCKED: ATOM     39  O   UNL d   1      24.330  15.746  16.402 -0.40 -1.24    -0.650 OA
DOCKED: BRANCH  38  40
DOCKED: ATOM     40  O   UNL d   1      22.204  15.452  15.850 +0.02 -0.86    -0.776 OA
DOCKED: ATOM     41  H   UNL d   1      21.571  16.138  16.106 +0.08 +0.21    +0.167 HD
DOCKED: ENDBRANCH  38  40
DOCKED: ENDBRANCH  37  38
DOCKED: ENDBRANCH  36  37
DOCKED: ENDBRANCH  22  36
DOCKED: BRANCH  12  42
DOCKED: ATOM     42  C   UNL d   1      13.678   8.303  13.145 -0.12 +0.00    +0.004 C 
DOCKED: ATOM     43  C   UNL d   1      13.031   7.730  14.169 -0.20 +0.01    +0.012 C 
DOCKED: ENDBRANCH  12  42
DOCKED: BRANCH  17  44
DOCKED: ATOM     44  C   UNL d   1      19.683   6.543  18.099 -0.42 -0.00    +0.004 C 
DOCKED: ATOM     45  C   UNL d   1      19.121   5.537  18.776 -0.53 -0.01    +0.012 C 
DOCKED: ENDBRANCH  17  44
DOCKED: TORSDOF 10
DOCKED: TER
DOCKED: ENDMDL
________________________________________________________________________________


	BEGINNING GENETIC ALGORITHM DOCKING 19 of 100
Run: 19 Seed: 2084223427 71113570 [ Run 19 of 100 GA/GALS ]
Beginning LAMARCKIAN GENETIC ALGORITHM (LGA), with a maximum of 25000000 energy evaluations.

Final-Value: -14.540


	FINAL GENETIC ALGORITHM DOCKED STATE
	_______________________________________________


Detailed state:  trans 2.012 -6.400 -6.290 quatxyzw -0.650444 0.252876 -0.699878 0.152139 center -0.174 -0.001 -0.047 ntor 10 -104.5232 179.8429 98.7830 -179.4231 134.2081 112.6154 92.2250 147.8422 -176.4694 28.2584
State:	  2.012  -6.400  -6.290  -0.658  0.256 -0.708 162.498   -104.52  179.84   98.78 -179.42  134.21  112.62   92.22  147.84 -176.47   28.26

DOCKED: MODEL       19
DOCKED: USER    Run = 19
DOCKED: USER    DPF = D:/Protein_go_brrr/autodock/final/1A3N/heme_Fe/dock.dpf
DOCKED: USER  
DOCKED: USER    Estimated Free Energy of Binding    =  -10.86 kcal/mol  [=(1)+(2)+(3)-(4)]
DOCKED: USER    Estimated Inhibition Constant, Ki   =   11.02 nM (nanomolar)  [Temperature = 298.15 K]
DOCKED: USER    
DOCKED: USER    (1) Final Intermolecular Energy     =  -13.84 kcal/mol
DOCKED: USER        vdW + Hbond + desolv Energy     =  -12.16 kcal/mol
DOCKED: USER        Electrostatic Energy            =   -1.68 kcal/mol
DOCKED: USER    (2) Final Total Internal Energy     =   -0.70 kcal/mol
DOCKED: USER    (3) Torsional Free Energy           =   +2.98 kcal/mol
DOCKED: USER    (4) Unbound System's Energy  [=(2)] =   -0.70 kcal/mol
DOCKED: USER    
DOCKED: USER    
DOCKED: USER    NEWDPF move heme_Fe_opt.pdbqt
DOCKED: USER    NEWDPF about -0.174000 -0.001000 -0.047000
DOCKED: USER    NEWDPF tran0 2.011773 -6.399838 -6.290005
DOCKED: USER    NEWDPF quaternion0 -0.650444 0.252876 -0.699878 0.152139
DOCKED: USER    NEWDPF axisangle0 -0.658105 0.255854 -0.708122 162.498205
DOCKED: USER    NEWDPF quat0 -0.658105 0.255854 -0.708122 162.498205
DOCKED: USER    NEWDPF dihe0 -104.52 179.84 98.78 -179.42 134.21 112.62 92.22 147.84 -176.47 28.26 
DOCKED: USER  keepresnum = 1 
DOCKED: USER  
DOCKED: REMARK  10 active torsions:
DOCKED: REMARK  status: ('A' for Active; 'I' for Inactive)
DOCKED: REMARK    1  A    between atoms: C_6  and  C_10 
DOCKED: REMARK    2  A    between atoms: C_10  and  C_11 
DOCKED: REMARK    3  A    between atoms: C_11  and  C_12 
DOCKED: REMARK    4  A    between atoms: C_12  and  O_14 
DOCKED: REMARK    5  A    between atoms: C_17  and  C_20 
DOCKED: REMARK    6  A    between atoms: C_24  and  C_27 
DOCKED: REMARK    7  A    between atoms: C_31  and  C_34 
DOCKED: REMARK    8  A    between atoms: C_34  and  C_35 
DOCKED: REMARK    9  A    between atoms: C_35  and  C_36 
DOCKED: REMARK   10  A    between atoms: C_36  and  O_38 
DOCKED: USER                              x       y       z     vdW  Elec       q    Type
DOCKED: USER                           _______ _______ _______ _____ _____    ______ ____
DOCKED: ROOT
DOCKED: ATOM      1  C   UNL d   1       2.700  -6.415  -8.223 -0.25 +0.02    +0.064 C 
DOCKED: ATOM      2  C   UNL d   1       3.948  -3.986  -4.103 -0.41 +0.01    +0.064 A 
DOCKED: ATOM      3  C   UNL d   1       1.364  -7.128  -1.551 -0.36 +0.00    +0.064 C 
DOCKED: ATOM      4  C   UNL d   1       0.059  -9.431  -5.535 -0.30 +0.02    +0.064 C 
DOCKED: ATOM      5  C   UNL d   1       3.223  -5.390  -7.308 -0.28 +0.02    +0.066 A 
DOCKED: ATOM      6  C   UNL d   1       3.924  -4.263  -7.702 -0.34 -0.00    -0.021 A 
DOCKED: ATOM      7  C   UNL d   1       4.274  -3.591  -6.557 -0.44 -0.00    -0.025 A 
DOCKED: ATOM      8  C   UNL d   1       3.771  -4.335  -5.507 -0.39 +0.01    +0.066 A 
DOCKED: ATOM      9  C   UNL d   1       5.029  -2.299  -6.487 -0.04 +0.00    +0.051 C 
DOCKED: ATOM     10  C   UNL d   1       3.425  -4.654  -3.074 -0.36 +0.01    +0.066 A 
DOCKED: ATOM     11  C   UNL d   1       3.706  -4.363  -1.737 -0.40 -0.00    -0.021 A 
DOCKED: ATOM     12  C   UNL d   1       2.986  -5.266  -0.981 -0.41 +0.00    +0.000 A 
DOCKED: ATOM     13  C   UNL d   1       2.303  -6.075  -1.905 -0.27 +0.00    +0.070 A 
DOCKED: ATOM     14  C   UNL d   1       4.668  -3.319  -1.207 -0.50 +0.00    +0.052 C 
DOCKED: ATOM     15  C   UNL d   1       0.743  -7.944  -2.435 -0.32 +0.01    +0.066 A 
DOCKED: ATOM     16  C   UNL d   1      -0.222  -8.871  -2.064 -0.46 -0.00    -0.021 A 
DOCKED: ATOM     17  C   UNL d   1      -0.597  -9.539  -3.211 -0.45 +0.00    +0.000 A 
DOCKED: ATOM     18  C   UNL d   1       0.153  -9.005  -4.257 -0.34 +0.01    +0.070 A 
DOCKED: ATOM     19  C   UNL d   1      -0.754  -9.139  -0.682 -0.20 -0.00    +0.052 C 
DOCKED: ATOM     20  C   UNL d   1       0.786  -8.852  -6.671 -0.24 +0.02    +0.066 A 
DOCKED: ATOM     21  C   UNL d   1       0.853  -9.406  -7.957 -0.18 -0.01    -0.025 A 
DOCKED: ATOM     22  C   UNL d   1       1.600  -8.524  -8.710 -0.17 -0.01    -0.021 A 
DOCKED: ATOM     23  C   UNL d   1       1.963  -7.475  -7.857 -0.23 +0.03    +0.066 A 
DOCKED: ATOM     24  C   UNL d   1       0.253 -10.699  -8.460 -0.13 +0.01    +0.051 C 
DOCKED: ATOM     25  N   UNL d   1       3.124  -5.424  -5.968 -0.22 -0.06    -0.248 N 
DOCKED: ATOM     26  N   UNL d   1       2.577  -5.709  -3.181 -0.20 -0.02    -0.248 N 
DOCKED: ATOM     27  N   UNL d   1       0.945  -7.995  -3.788 -0.24 -0.03    -0.248 N 
DOCKED: ATOM     28  N   UNL d   1       1.501  -7.704  -6.603 -0.17 -0.09    -0.248 N 
DOCKED: ATOM     29 FE   UNL d   1       2.038  -6.708  -4.892 -0.08 +0.00    +0.000 Fe
DOCKED: ENDROOT
DOCKED: BRANCH   6  30
DOCKED: ATOM     30  C   UNL d   1       4.230  -3.832  -9.096 -0.28 +0.00    +0.052 C 
DOCKED: BRANCH  30  31
DOCKED: ATOM     31  C   UNL d   1       5.523  -4.473  -9.588 -0.19 +0.01    +0.115 C 
DOCKED: BRANCH  31  32
DOCKED: ATOM     32  C   UNL d   1       6.707  -3.627  -9.210 -0.30 -0.00    +0.139 C 
DOCKED: ATOM     33  O   UNL d   1       7.707  -4.135  -8.723 -0.05 +0.04    -0.650 OA
DOCKED: BRANCH  32  34
DOCKED: ATOM     34  O   UNL d   1       6.676  -2.298  -9.406 +0.09 +0.08    -0.776 OA
DOCKED: ATOM     35  H   UNL d   1       6.156  -1.746  -8.804 -0.48 -0.06    +0.167 HD
DOCKED: ENDBRANCH  32  34
DOCKED: ENDBRANCH  31  32
DOCKED: ENDBRANCH  30  31
DOCKED: ENDBRANCH   6  30
DOCKED: BRANCH  22  36
DOCKED: ATOM     36  C   UNL d   1       1.983  -8.706 -10.155 -0.10 +0.02    +0.052 C 
DOCKED: BRANCH  36  37
DOCKED: ATOM     37  C   UNL d   1       1.538  -7.493 -10.960 -0.07 +0.05    +0.115 C 
DOCKED: BRANCH  37  38
DOCKED: ATOM     38  C   UNL d   1       0.268  -6.914 -10.405 -0.09 +0.15    +0.139 C 
DOCKED: ATOM     39  O   UNL d   1       0.262  -5.812  -9.877 -0.55 -0.96    -0.650 OA
DOCKED: BRANCH  38  40
DOCKED: ATOM     40  O   UNL d   1      -0.879  -7.613 -10.484 -0.18 -1.06    -0.776 OA
DOCKED: ATOM     41  H   UNL d   1      -0.871  -8.483 -10.906 +0.02 +0.13    +0.167 HD
DOCKED: ENDBRANCH  38  40
DOCKED: ENDBRANCH  37  38
DOCKED: ENDBRANCH  36  37
DOCKED: ENDBRANCH  22  36
DOCKED: BRANCH  12  42
DOCKED: ATOM     42  C   UNL d   1       2.994  -5.329   0.513 -0.41 +0.00    +0.004 C 
DOCKED: ATOM     43  C   UNL d   1       1.898  -5.692   1.194 -0.44 +0.00    +0.012 C 
DOCKED: ENDBRANCH  12  42
DOCKED: BRANCH  17  44
DOCKED: ATOM     44  C   UNL d   1      -1.621 -10.605  -3.304 -0.40 -0.00    +0.004 C 
DOCKED: ATOM     45  C   UNL d   1      -1.327 -11.792  -3.844 -0.30 +0.00    +0.012 C 
DOCKED: ENDBRANCH  17  44
DOCKED: TORSDOF 10
DOCKED: TER
DOCKED: ENDMDL
________________________________________________________________________________


	BEGINNING GENETIC ALGORITHM DOCKING 20 of 100
Run: 20 Seed: 1474295609 1245243990 [ Run 20 of 100 GA/GALS ]
Beginning LAMARCKIAN GENETIC ALGORITHM (LGA), with a maximum of 25000000 energy evaluations.

Final-Value: -18.014


	FINAL GENETIC ALGORITHM DOCKED STATE
	_______________________________________________


Detailed state:  trans 23.687 7.733 -4.579 quatxyzw 0.703755 -0.286232 0.617987 -0.202217 center -0.174 -0.001 -0.047 ntor 10 39.5160 -124.7049 70.4531 -147.2390 -46.1537 158.5125 64.3221 74.5856 -41.3826 -177.6122
State:	 23.687   7.733  -4.579   0.719 -0.292  0.631 -156.667     39.52 -124.70   70.45 -147.24  -46.15  158.51   64.32   74.59  -41.38 -177.61

DOCKED: MODEL       20
DOCKED: USER    Run = 20
DOCKED: USER    DPF = D:/Protein_go_brrr/autodock/final/1A3N/heme_Fe/dock.dpf
DOCKED: USER  
DOCKED: USER    Estimated Free Energy of Binding    =  -13.13 kcal/mol  [=(1)+(2)+(3)-(4)]
DOCKED: USER    Estimated Inhibition Constant, Ki   =  236.81 pM (picomolar)  [Temperature = 298.15 K]
DOCKED: USER    
DOCKED: USER    (1) Final Intermolecular Energy     =  -16.11 kcal/mol
DOCKED: USER        vdW + Hbond + desolv Energy     =  -13.30 kcal/mol
DOCKED: USER        Electrostatic Energy            =   -2.81 kcal/mol
DOCKED: USER    (2) Final Total Internal Energy     =   -1.90 kcal/mol
DOCKED: USER    (3) Torsional Free Energy           =   +2.98 kcal/mol
DOCKED: USER    (4) Unbound System's Energy  [=(2)] =   -1.90 kcal/mol
DOCKED: USER    
DOCKED: USER    
DOCKED: USER    NEWDPF move heme_Fe_opt.pdbqt
DOCKED: USER    NEWDPF about -0.174000 -0.001000 -0.047000
DOCKED: USER    NEWDPF tran0 23.686981 7.733400 -4.578525
DOCKED: USER    NEWDPF quaternion0 0.703755 -0.286232 0.617987 -0.202217
DOCKED: USER    NEWDPF axisangle0 0.718601 -0.292270 0.631024 -156.666751
DOCKED: USER    NEWDPF quat0 0.718601 -0.292270 0.631024 -156.666751
DOCKED: USER    NEWDPF dihe0 39.52 -124.70 70.45 -147.24 -46.15 158.51 64.32 74.59 -41.38 -177.61 
DOCKED: USER  keepresnum = 1 
DOCKED: USER  
DOCKED: REMARK  10 active torsions:
DOCKED: REMARK  status: ('A' for Active; 'I' for Inactive)
DOCKED: REMARK    1  A    between atoms: C_6  and  C_10 
DOCKED: REMARK    2  A    between atoms: C_10  and  C_11 
DOCKED: REMARK    3  A    between atoms: C_11  and  C_12 
DOCKED: REMARK    4  A    between atoms: C_12  and  O_14 
DOCKED: REMARK    5  A    between atoms: C_17  and  C_20 
DOCKED: REMARK    6  A    between atoms: C_24  and  C_27 
DOCKED: REMARK    7  A    between atoms: C_31  and  C_34 
DOCKED: REMARK    8  A    between atoms: C_34  and  C_35 
DOCKED: REMARK    9  A    between atoms: C_35  and  C_36 
DOCKED: REMARK   10  A    between atoms: C_36  and  O_38 
DOCKED: USER                              x       y       z     vdW  Elec       q    Type
DOCKED: USER                           _______ _______ _______ _____ _____    ______ ____
DOCKED: ROOT
DOCKED: ATOM      1  C   UNL d   1      23.983   7.741  -6.609 -0.28 +0.02    +0.064 C 
DOCKED: ATOM      2  C   UNL d   1      26.272   9.815  -2.750 -0.41 +0.01    +0.064 A 
DOCKED: ATOM      3  C   UNL d   1      23.886   6.843   0.173 -0.36 +0.00    +0.064 C 
DOCKED: ATOM      4  C   UNL d   1      21.582   4.894  -3.539 -0.44 +0.01    +0.064 C 
DOCKED: ATOM      5  C   UNL d   1      24.786   8.657  -5.787 -0.33 +0.02    +0.066 A 
DOCKED: ATOM      6  C   UNL d   1      25.523   9.722  -6.280 -0.34 -0.01    -0.021 A 
DOCKED: ATOM      7  C   UNL d   1      26.162  10.295  -5.208 -0.36 -0.00    -0.025 A 
DOCKED: ATOM      8  C   UNL d   1      25.789   9.557  -4.101 -0.41 +0.01    +0.066 A 
DOCKED: ATOM      9  C   UNL d   1      27.059  11.493  -5.252 -0.36 +0.01    +0.051 C 
DOCKED: ATOM     10  C   UNL d   1      25.884   9.155  -1.657 -0.41 +0.01    +0.066 A 
DOCKED: ATOM     11  C   UNL d   1      26.449   9.348  -0.394 -0.46 -0.00    -0.021 A 
DOCKED: ATOM     12  C   UNL d   1      25.790   8.491   0.464 -0.40 +0.00    +0.000 A 
DOCKED: ATOM     13  C   UNL d   1      24.853   7.806  -0.330 -0.34 +0.00    +0.070 A 
DOCKED: ATOM     14  C   UNL d   1      27.608  10.256  -0.035 -0.55 -0.00    +0.052 C 
DOCKED: ATOM     15  C   UNL d   1      23.017   6.143  -0.594 -0.34 +0.00    +0.066 A 
DOCKED: ATOM     16  C   UNL d   1      22.042   5.307  -0.066 -0.41 -0.00    -0.021 A 
DOCKED: ATOM     17  C   UNL d   1      21.379   4.741  -1.135 -0.42 +0.00    +0.000 A 
DOCKED: ATOM     18  C   UNL d   1      21.969   5.243  -2.292 -0.35 +0.01    +0.070 A 
DOCKED: ATOM     19  C   UNL d   1      21.759   5.029   1.386 -0.57 +0.00    +0.052 C 
DOCKED: ATOM     20  C   UNL d   1      22.138   5.448  -4.779 -0.35 +0.01    +0.066 A 
DOCKED: ATOM     21  C   UNL d   1      21.892   4.955  -6.068 -0.35 -0.00    -0.025 A 
DOCKED: ATOM     22  C   UNL d   1      22.575   5.789  -6.928 -0.25 -0.01    -0.021 A 
DOCKED: ATOM     23  C   UNL d   1      23.214   6.749  -6.134 +0.05 +0.02    +0.066 A 
DOCKED: ATOM     24  C   UNL d   1      21.062   3.761  -6.479 -0.46 +0.01    +0.051 C 
DOCKED: ATOM     25  N   UNL d   1      24.945   8.568  -4.455 -0.25 -0.04    -0.248 N 
DOCKED: ATOM     26  N   UNL d   1      24.916   8.204  -1.624 -0.24 -0.02    -0.248 N 
DOCKED: ATOM     27  N   UNL d   1      22.947   6.139  -1.961 -0.21 -0.01    -0.248 N 
DOCKED: ATOM     28  N   UNL d   1      22.980   6.509  -4.821 -0.14 -0.04    -0.248 N 
DOCKED: ATOM     29 FE   UNL d   1      23.947   7.355  -3.223 -0.08 +0.00    +0.000 Fe
DOCKED: ENDROOT
DOCKED: BRANCH   6  30
DOCKED: ATOM     30  C   UNL d   1      25.602  10.186  -7.694 -0.29 +0.03    +0.052 C 
DOCKED: BRANCH  30  31
DOCKED: ATOM     31  C   UNL d   1      24.209  10.302  -8.303 -0.17 +0.06    +0.115 C 
DOCKED: BRANCH  31  32
DOCKED: ATOM     32  C   UNL d   1      24.044   9.322  -9.431 -0.18 +0.11    +0.139 C 
DOCKED: ATOM     33  O   UNL d   1      24.914   9.200 -10.282 -0.03 -1.06    -0.650 OA
DOCKED: BRANCH  32  34
DOCKED: ATOM     34  O   UNL d   1      22.935   8.568  -9.514 +0.04 -0.47    -0.776 OA
DOCKED: ATOM     35  H   UNL d   1      23.015   7.644  -9.789 +0.05 +0.11    +0.167 HD
DOCKED: ENDBRANCH  32  34
DOCKED: ENDBRANCH  31  32
DOCKED: ENDBRANCH  30  31
DOCKED: ENDBRANCH   6  30
DOCKED: BRANCH  22  36
DOCKED: ATOM     36  C   UNL d   1      22.649   5.640  -8.425 -0.28 +0.02    +0.052 C 
DOCKED: BRANCH  36  37
DOCKED: ATOM     37  C   UNL d   1      23.690   4.590  -8.786 -0.33 +0.05    +0.115 C 
DOCKED: BRANCH  37  38
DOCKED: ATOM     38  C   UNL d   1      24.930   5.231  -9.343 -0.29 +0.12    +0.139 C 
DOCKED: ATOM     39  O   UNL d   1      26.000   4.640  -9.328 -0.11 -0.53    -0.650 OA
DOCKED: BRANCH  38  40
DOCKED: ATOM     40  O   UNL d   1      24.870   6.470  -9.863 -0.11 -1.50    -0.776 OA
DOCKED: ATOM     41  H   UNL d   1      24.516   7.190  -9.322 +0.05 +0.24    +0.167 HD
DOCKED: ENDBRANCH  38  40
DOCKED: ENDBRANCH  37  38
DOCKED: ENDBRANCH  36  37
DOCKED: ENDBRANCH  22  36
DOCKED: BRANCH  12  42
DOCKED: ATOM     42  C   UNL d   1      26.079   8.353   1.925 -0.52 +0.00    +0.004 C 
DOCKED: ATOM     43  C   UNL d   1      25.143   8.634   2.842 -0.55 -0.00    +0.012 C 
DOCKED: ENDBRANCH  12  42
DOCKED: BRANCH  17  44
DOCKED: ATOM     44  C   UNL d   1      20.241   3.797  -1.053 -0.16 +0.00    +0.004 C 
DOCKED: ATOM     45  C   UNL d   1      20.445   2.476  -1.073 -0.58 +0.00    +0.012 C 
DOCKED: ENDBRANCH  17  44
DOCKED: TORSDOF 10
DOCKED: TER
DOCKED: ENDMDL
________________________________________________________________________________


	BEGINNING GENETIC ALGORITHM DOCKING 21 of 100
Run: 21 Seed: 25086268 1199273829 [ Run 21 of 100 GA/GALS ]
Beginning LAMARCKIAN GENETIC ALGORITHM (LGA), with a maximum of 25000000 energy evaluations.

Final-Value: -18.116


	FINAL GENETIC ALGORITHM DOCKED STATE
	_______________________________________________


Detailed state:  trans 23.536 -7.022 32.260 quatxyzw 0.029067 -0.657704 -0.136198 0.740291 center -0.174 -0.001 -0.047 ntor 10 -160.0660 -44.9000 83.7820 -121.1478 74.9323 120.8031 -32.8491 69.3652 175.7026 179.8467
State:	 23.536  -7.022  32.260   0.043 -0.978 -0.203 84.488   -160.07  -44.90   83.78 -121.15   74.93  120.80  -32.85   69.37  175.70  179.85

DOCKED: MODEL       21
DOCKED: USER    Run = 21
DOCKED: USER    DPF = D:/Protein_go_brrr/autodock/final/1A3N/heme_Fe/dock.dpf
DOCKED: USER  
DOCKED: USER    Estimated Free Energy of Binding    =  -13.14 kcal/mol  [=(1)+(2)+(3)-(4)]
DOCKED: USER    Estimated Inhibition Constant, Ki   =  233.15 pM (picomolar)  [Temperature = 298.15 K]
DOCKED: USER    
DOCKED: USER    (1) Final Intermolecular Energy     =  -16.12 kcal/mol
DOCKED: USER        vdW + Hbond + desolv Energy     =  -13.61 kcal/mol
DOCKED: USER        Electrostatic Energy            =   -2.52 kcal/mol
DOCKED: USER    (2) Final Total Internal Energy     =   -1.99 kcal/mol
DOCKED: USER    (3) Torsional Free Energy           =   +2.98 kcal/mol
DOCKED: USER    (4) Unbound System's Energy  [=(2)] =   -1.99 kcal/mol
DOCKED: USER    
DOCKED: USER    
DOCKED: USER    NEWDPF move heme_Fe_opt.pdbqt
DOCKED: USER    NEWDPF about -0.174000 -0.001000 -0.047000
DOCKED: USER    NEWDPF tran0 23.536365 -7.021997 32.259532
DOCKED: USER    NEWDPF quaternion0 0.029067 -0.657704 -0.136198 0.740291
DOCKED: USER    NEWDPF axisangle0 0.043237 -0.978309 -0.202589 84.487651
DOCKED: USER    NEWDPF quat0 0.043237 -0.978309 -0.202589 84.487651
DOCKED: USER    NEWDPF dihe0 -160.07 -44.90 83.78 -121.15 74.93 120.80 -32.85 69.37 175.70 179.85 
DOCKED: USER  keepresnum = 1 
DOCKED: USER  
DOCKED: REMARK  10 active torsions:
DOCKED: REMARK  status: ('A' for Active; 'I' for Inactive)
DOCKED: REMARK    1  A    between atoms: C_6  and  C_10 
DOCKED: REMARK    2  A    between atoms: C_10  and  C_11 
DOCKED: REMARK    3  A    between atoms: C_11  and  C_12 
DOCKED: REMARK    4  A    between atoms: C_12  and  O_14 
DOCKED: REMARK    5  A    between atoms: C_17  and  C_20 
DOCKED: REMARK    6  A    between atoms: C_24  and  C_27 
DOCKED: REMARK    7  A    between atoms: C_31  and  C_34 
DOCKED: REMARK    8  A    between atoms: C_34  and  C_35 
DOCKED: REMARK    9  A    between atoms: C_35  and  C_36 
DOCKED: REMARK   10  A    between atoms: C_36  and  O_38 
DOCKED: USER                              x       y       z     vdW  Elec       q    Type
DOCKED: USER                           _______ _______ _______ _____ _____    ______ ____
DOCKED: ROOT
DOCKED: ATOM      1  C   UNL d   1      23.871  -7.284  34.267 -0.33 +0.02    +0.064 C 
DOCKED: ATOM      2  C   UNL d   1      24.838  -9.927  30.203 -0.42 +0.00    +0.064 A 
DOCKED: ATOM      3  C   UNL d   1      23.943  -6.031  27.541 -0.43 +0.00    +0.064 C 
DOCKED: ATOM      4  C   UNL d   1      22.901  -3.484  31.454 -0.48 +0.01    +0.064 C 
DOCKED: ATOM      5  C   UNL d   1      24.145  -8.411  33.365 -0.32 +0.01    +0.066 A 
DOCKED: ATOM      6  C   UNL d   1      24.340  -9.721  33.773 -0.29 -0.00    -0.021 A 
DOCKED: ATOM      7  C   UNL d   1      24.612 -10.453  32.644 -0.30 -0.00    -0.025 A 
DOCKED: ATOM      8  C   UNL d   1      24.572  -9.562  31.589 -0.36 +0.01    +0.066 A 
DOCKED: ATOM      9  C   UNL d   1      24.875 -11.927  32.590 -0.16 +0.00    +0.051 C 
DOCKED: ATOM     10  C   UNL d   1      24.750  -9.099  29.161 -0.41 +0.00    +0.066 A 
DOCKED: ATOM     11  C   UNL d   1      25.121  -9.448  27.861 -0.48 -0.00    -0.021 A 
DOCKED: ATOM     12  C   UNL d   1      24.889  -8.336  27.076 -0.42 +0.00    +0.000 A 
DOCKED: ATOM     13  C   UNL d   1      24.390  -7.353  27.949 -0.36 +0.00    +0.070 A 
DOCKED: ATOM     14  C   UNL d   1      25.733 -10.755  27.399 -0.53 -0.00    +0.052 C 
DOCKED: ATOM     15  C   UNL d   1      23.511  -5.064  28.384 -0.38 +0.00    +0.066 A 
DOCKED: ATOM     16  C   UNL d   1      22.999  -3.849  27.947 -0.45 -0.00    -0.021 A 
DOCKED: ATOM     17  C   UNL d   1      22.701  -3.111  29.074 -0.48 +0.00    +0.000 A 
DOCKED: ATOM     18  C   UNL d   1      23.043  -3.893  30.174 -0.40 +0.01    +0.070 A 
DOCKED: ATOM     19  C   UNL d   1      22.820  -3.386  26.526 -0.53 +0.00    +0.052 C 
DOCKED: ATOM     20  C   UNL d   1      23.192  -4.302  32.637 -0.36 +0.01    +0.066 A 
DOCKED: ATOM     21  C   UNL d   1      23.241  -3.829  33.956 -0.37 -0.00    -0.025 A 
DOCKED: ATOM     22  C   UNL d   1      23.506  -4.931  34.743 -0.24 -0.00    -0.021 A 
DOCKED: ATOM     23  C   UNL d   1      23.614  -6.026  33.877 -0.19 +0.01    +0.066 A 
DOCKED: ATOM     24  C   UNL d   1      23.054  -2.417  34.460 -0.46 +0.01    +0.051 C 
DOCKED: ATOM     25  N   UNL d   1      24.278  -8.322  32.030 -0.22 -0.03    -0.248 N 
DOCKED: ATOM     26  N   UNL d   1      24.314  -7.815  29.221 -0.25 -0.01    -0.248 N 
DOCKED: ATOM     27  N   UNL d   1      23.500  -5.110  29.753 -0.25 -0.01    -0.248 N 
DOCKED: ATOM     28  N   UNL d   1      23.466  -5.628  32.590 -0.22 -0.03    -0.248 N 
DOCKED: ATOM     29 FE   UNL d   1      23.889  -6.719  30.906 -0.09 -0.00    +0.000 Fe
DOCKED: ENDROOT
DOCKED: BRANCH   6  30
DOCKED: ATOM     30  C   UNL d   1      24.252 -10.256  35.161 -0.23 +0.02    +0.052 C 
DOCKED: BRANCH  30  31
DOCKED: ATOM     31  C   UNL d   1      25.630 -10.300  35.812 +0.22 +0.07    +0.115 C 
DOCKED: BRANCH  31  32
DOCKED: ATOM     32  C   UNL d   1      25.523 -10.049  37.290 -0.09 +0.12    +0.139 C 
DOCKED: ATOM     33  O   UNL d   1      25.097 -10.916  38.040 -0.01 -0.31    -0.650 OA
DOCKED: BRANCH  32  34
DOCKED: ATOM     34  O   UNL d   1      25.895  -8.863  37.802 -0.37 -1.40    -0.776 OA
DOCKED: ATOM     35  H   UNL d   1      25.951  -8.096  37.216 +0.03 +0.34    +0.167 HD
DOCKED: ENDBRANCH  32  34
DOCKED: ENDBRANCH  31  32
DOCKED: ENDBRANCH  30  31
DOCKED: ENDBRANCH   6  30
DOCKED: BRANCH  22  36
DOCKED: ATOM     36  C   UNL d   1      23.693  -4.921  36.237 -0.24 +0.01    +0.052 C 
DOCKED: BRANCH  36  37
DOCKED: ATOM     37  C   UNL d   1      25.126  -4.534  36.572 -0.20 +0.04    +0.115 C 
DOCKED: BRANCH  37  38
DOCKED: ATOM     38  C   UNL d   1      25.876  -5.698  37.156 -0.20 +0.12    +0.139 C 
DOCKED: ATOM     39  O   UNL d   1      26.887  -6.124  36.618 +0.01 -1.03    -0.650 OA
DOCKED: BRANCH  38  40
DOCKED: ATOM     40  O   UNL d   1      25.433  -6.285  38.282 -0.05 -0.69    -0.776 OA
DOCKED: ATOM     41  H   UNL d   1      25.403  -7.251  38.328 +0.02 +0.19    +0.167 HD
DOCKED: ENDBRANCH  38  40
DOCKED: ENDBRANCH  37  38
DOCKED: ENDBRANCH  36  37
DOCKED: ENDBRANCH  22  36
DOCKED: BRANCH  12  42
DOCKED: ATOM     42  C   UNL d   1      25.155  -8.254  25.607 -0.52 +0.00    +0.004 C 
DOCKED: ATOM     43  C   UNL d   1      24.231  -7.775  24.764 -0.56 +0.00    +0.012 C 
DOCKED: ENDBRANCH  12  42
DOCKED: BRANCH  17  44
DOCKED: ATOM     44  C   UNL d   1      22.109  -1.755  29.096 -0.58 +0.00    +0.004 C 
DOCKED: ATOM     45  C   UNL d   1      22.795  -0.700  28.643 -0.66 +0.00    +0.012 C 
DOCKED: ENDBRANCH  17  44
DOCKED: TORSDOF 10
DOCKED: TER
DOCKED: ENDMDL
________________________________________________________________________________


	BEGINNING GENETIC ALGORITHM DOCKING 22 of 100
Run: 22 Seed: 1116866064 1225295594 [ Run 22 of 100 GA/GALS ]
Beginning LAMARCKIAN GENETIC ALGORITHM (LGA), with a maximum of 25000000 energy evaluations.

Final-Value: -17.707


	FINAL GENETIC ALGORITHM DOCKED STATE
	_______________________________________________


Detailed state:  trans 2.465 -6.992 -4.417 quatxyzw -0.289654 -0.693387 -0.077135 -0.655260 center -0.174 -0.001 -0.047 ntor 10 -35.3551 -113.8548 -104.4656 -121.7239 60.7887 146.1042 -44.0861 67.6467 180.0000 -154.4473
State:	  2.465  -6.992  -4.417  -0.383 -0.918 -0.102 -98.121    -35.36 -113.85 -104.47 -121.72   60.79  146.10  -44.09   67.65  180.00 -154.45

DOCKED: MODEL       22
DOCKED: USER    Run = 22
DOCKED: USER    DPF = D:/Protein_go_brrr/autodock/final/1A3N/heme_Fe/dock.dpf
DOCKED: USER  
DOCKED: USER    Estimated Free Energy of Binding    =  -13.39 kcal/mol  [=(1)+(2)+(3)-(4)]
DOCKED: USER    Estimated Inhibition Constant, Ki   =  152.91 pM (picomolar)  [Temperature = 298.15 K]
DOCKED: USER    
DOCKED: USER    (1) Final Intermolecular Energy     =  -16.37 kcal/mol
DOCKED: USER        vdW + Hbond + desolv Energy     =  -13.97 kcal/mol
DOCKED: USER        Electrostatic Energy            =   -2.40 kcal/mol
DOCKED: USER    (2) Final Total Internal Energy     =   -1.33 kcal/mol
DOCKED: USER    (3) Torsional Free Energy           =   +2.98 kcal/mol
DOCKED: USER    (4) Unbound System's Energy  [=(2)] =   -1.33 kcal/mol
DOCKED: USER    
DOCKED: USER    
DOCKED: USER    NEWDPF move heme_Fe_opt.pdbqt
DOCKED: USER    NEWDPF about -0.174000 -0.001000 -0.047000
DOCKED: USER    NEWDPF tran0 2.464628 -6.991503 -4.416535
DOCKED: USER    NEWDPF quaternion0 -0.289654 -0.693387 -0.077135 -0.655260
DOCKED: USER    NEWDPF axisangle0 -0.383443 -0.917903 -0.102111 -98.121230
DOCKED: USER    NEWDPF quat0 -0.383443 -0.917903 -0.102111 -98.121230
DOCKED: USER    NEWDPF dihe0 -35.36 -113.85 -104.47 -121.72 60.79 146.10 -44.09 67.65 180.00 -154.45 
DOCKED: USER  keepresnum = 1 
DOCKED: USER  
DOCKED: REMARK  10 active torsions:
DOCKED: REMARK  status: ('A' for Active; 'I' for Inactive)
DOCKED: REMARK    1  A    between atoms: C_6  and  C_10 
DOCKED: REMARK    2  A    between atoms: C_10  and  C_11 
DOCKED: REMARK    3  A    between atoms: C_11  and  C_12 
DOCKED: REMARK    4  A    between atoms: C_12  and  O_14 
DOCKED: REMARK    5  A    between atoms: C_17  and  C_20 
DOCKED: REMARK    6  A    between atoms: C_24  and  C_27 
DOCKED: REMARK    7  A    between atoms: C_31  and  C_34 
DOCKED: REMARK    8  A    between atoms: C_34  and  C_35 
DOCKED: REMARK    9  A    between atoms: C_35  and  C_36 
DOCKED: REMARK   10  A    between atoms: C_36  and  O_38 
DOCKED: USER                              x       y       z     vdW  Elec       q    Type
DOCKED: USER                           _______ _______ _______ _____ _____    ______ ____
DOCKED: ROOT
DOCKED: ATOM      1  C   UNL d   1       1.923  -7.377  -6.358 -0.30 +0.02    +0.064 C 
DOCKED: ATOM      2  C   UNL d   1       0.516  -9.101  -1.945 -0.41 +0.00    +0.064 A 
DOCKED: ATOM      3  C   UNL d   1       2.713  -5.371   0.136 -0.42 +0.00    +0.064 C 
DOCKED: ATOM      4  C   UNL d   1       4.175  -3.742  -4.118 -0.48 +0.01    +0.064 C 
DOCKED: ATOM      5  C   UNL d   1       1.394  -8.253  -5.303 -0.32 +0.01    +0.066 A 
DOCKED: ATOM      6  C   UNL d   1       0.791  -9.480  -5.524 -0.30 -0.00    -0.021 A 
DOCKED: ATOM      7  C   UNL d   1       0.397  -9.957  -4.298 -0.32 -0.00    -0.025 A 
DOCKED: ATOM      8  C   UNL d   1       0.776  -9.001  -3.375 -0.35 +0.01    +0.066 A 
DOCKED: ATOM      9  C   UNL d   1      -0.285 -11.265  -4.036 -0.20 +0.00    +0.051 C 
DOCKED: ATOM     10  C   UNL d   1       0.920  -8.221  -1.027 -0.40 +0.00    +0.066 A 
DOCKED: ATOM     11  C   UNL d   1       0.557  -8.284   0.321 -0.46 +0.00    -0.021 A 
DOCKED: ATOM     12  C   UNL d   1       1.165  -7.210   0.939 -0.39 +0.00    +0.000 A 
DOCKED: ATOM     13  C   UNL d   1       1.867  -6.535  -0.074 -0.37 +0.00    +0.070 A 
DOCKED: ATOM     14  C   UNL d   1      -0.378  -9.281   0.974 -0.56 -0.00    +0.052 C 
DOCKED: ATOM     15  C   UNL d   1       3.349  -4.687  -0.844 -0.36 +0.00    +0.066 A 
DOCKED: ATOM     16  C   UNL d   1       4.228  -3.641  -0.592 -0.44 -0.00    -0.021 A 
DOCKED: ATOM     17  C   UNL d   1       4.648  -3.168  -1.818 -0.47 +0.00    +0.000 A 
DOCKED: ATOM     18  C   UNL d   1       4.011  -3.934  -2.791 -0.38 +0.01    +0.070 A 
DOCKED: ATOM     19  C   UNL d   1       4.639  -3.090   0.747 -0.45 +0.00    +0.052 C 
DOCKED: ATOM     20  C   UNL d   1       3.570  -4.568  -5.170 -0.38 +0.01    +0.066 A 
DOCKED: ATOM     21  C   UNL d   1       3.567  -4.263  -6.538 -0.39 -0.00    -0.025 A 
DOCKED: ATOM     22  C   UNL d   1       2.931  -5.318  -7.159 -0.28 -0.01    -0.021 A 
DOCKED: ATOM     23  C   UNL d   1       2.567  -6.218  -6.150 -0.17 +0.02    +0.066 A 
DOCKED: ATOM     24  C   UNL d   1       4.126  -3.043  -7.234 -0.45 +0.00    +0.051 C 
DOCKED: ATOM     25  N   UNL d   1       1.390  -7.970  -3.989 -0.22 -0.03    -0.248 N 
DOCKED: ATOM     26  N   UNL d   1       1.711  -7.146  -1.275 -0.24 -0.00    -0.248 N 
DOCKED: ATOM     27  N   UNL d   1       3.246  -4.897  -2.193 -0.23 -0.01    -0.248 N 
DOCKED: ATOM     28  N   UNL d   1       2.920  -5.733  -4.934 -0.20 -0.05    -0.248 N 
DOCKED: ATOM     29 FE   UNL d   1       2.316  -6.438  -3.105 -0.09 +0.00    +0.000 Fe
DOCKED: ENDROOT
DOCKED: BRANCH   6  30
DOCKED: ATOM     30  C   UNL d   1       0.616 -10.177  -6.829 -0.23 +0.01    +0.052 C 
DOCKED: BRANCH  30  31
DOCKED: ATOM     31  C   UNL d   1      -0.713  -9.796  -7.471 -0.14 +0.05    +0.115 C 
DOCKED: BRANCH  31  32
DOCKED: ATOM     32  C   UNL d   1      -0.529  -9.519  -8.938 -0.13 +0.07    +0.139 C 
DOCKED: ATOM     33  O   UNL d   1      -0.112 -10.390  -9.689 +0.01 -0.21    -0.650 OA
DOCKED: BRANCH  32  34
DOCKED: ATOM     34  O   UNL d   1      -0.821  -8.306  -9.437 +0.03 -0.86    -0.776 OA
DOCKED: ATOM     35  H   UNL d   1      -0.279  -7.951 -10.155 +0.02 +0.16    +0.167 HD
DOCKED: ENDBRANCH  32  34
DOCKED: ENDBRANCH  31  32
DOCKED: ENDBRANCH  30  31
DOCKED: ENDBRANCH   6  30
DOCKED: BRANCH  22  36
DOCKED: ATOM     36  C   UNL d   1       2.647  -5.429  -8.634 -0.27 +0.02    +0.052 C 
DOCKED: BRANCH  36  37
DOCKED: ATOM     37  C   UNL d   1       1.822  -4.235  -9.089 -0.30 +0.05    +0.115 C 
DOCKED: BRANCH  37  38
DOCKED: ATOM     38  C   UNL d   1       0.443  -4.660  -9.508 -0.16 +0.15    +0.139 C 
DOCKED: ATOM     39  O   UNL d   1      -0.520  -3.932  -9.319 +0.04 -0.97    -0.650 OA
DOCKED: BRANCH  38  40
DOCKED: ATOM     40  O   UNL d   1       0.259  -5.856 -10.095 -0.51 -1.08    -0.776 OA
DOCKED: ATOM     41  H   UNL d   1       0.423  -6.661  -9.583 +0.03 +0.21    +0.167 HD
DOCKED: ENDBRANCH  38  40
DOCKED: ENDBRANCH  37  38
DOCKED: ENDBRANCH  36  37
DOCKED: ENDBRANCH  22  36
DOCKED: BRANCH  12  42
DOCKED: ATOM     42  C   UNL d   1       1.042  -6.877   2.392 -0.51 +0.00    +0.004 C 
DOCKED: ATOM     43  C   UNL d   1      -0.158  -6.683   2.956 -0.57 +0.00    +0.012 C 
DOCKED: ENDBRANCH  12  42
DOCKED: BRANCH  17  44
DOCKED: ATOM     44  C   UNL d   1       5.612  -2.067  -2.043 -0.60 +0.00    +0.004 C 
DOCKED: ATOM     45  C   UNL d   1       5.298  -0.806  -1.724 -0.66 +0.00    +0.012 C 
DOCKED: ENDBRANCH  17  44
DOCKED: TORSDOF 10
DOCKED: TER
DOCKED: ENDMDL
________________________________________________________________________________


	BEGINNING GENETIC ALGORITHM DOCKING 23 of 100
Run: 23 Seed: 1855233617 579962292 [ Run 23 of 100 GA/GALS ]
Beginning LAMARCKIAN GENETIC ALGORITHM (LGA), with a maximum of 25000000 energy evaluations.

Final-Value: -18.250


	FINAL GENETIC ALGORITHM DOCKED STATE
	_______________________________________________


Detailed state:  trans 23.538 -7.062 31.956 quatxyzw -0.027151 0.653383 0.138804 -0.743699 center -0.174 -0.001 -0.047 ntor 10 41.3437 -69.2687 81.2336 -123.8870 157.4660 145.2203 -64.5652 51.8900 -162.2332 -174.4740
State:	 23.538  -7.062  31.956  -0.041  0.977  0.208 -83.905     41.34  -69.27   81.23 -123.89  157.47  145.22  -64.57   51.89 -162.23 -174.47

DOCKED: MODEL       23
DOCKED: USER    Run = 23
DOCKED: USER    DPF = D:/Protein_go_brrr/autodock/final/1A3N/heme_Fe/dock.dpf
DOCKED: USER  
DOCKED: USER    Estimated Free Energy of Binding    =  -13.25 kcal/mol  [=(1)+(2)+(3)-(4)]
DOCKED: USER    Estimated Inhibition Constant, Ki   =  195.46 pM (picomolar)  [Temperature = 298.15 K]
DOCKED: USER    
DOCKED: USER    (1) Final Intermolecular Energy     =  -16.23 kcal/mol
DOCKED: USER        vdW + Hbond + desolv Energy     =  -14.08 kcal/mol
DOCKED: USER        Electrostatic Energy            =   -2.15 kcal/mol
DOCKED: USER    (2) Final Total Internal Energy     =   -2.02 kcal/mol
DOCKED: USER    (3) Torsional Free Energy           =   +2.98 kcal/mol
DOCKED: USER    (4) Unbound System's Energy  [=(2)] =   -2.02 kcal/mol
DOCKED: USER    
DOCKED: USER    
DOCKED: USER    NEWDPF move heme_Fe_opt.pdbqt
DOCKED: USER    NEWDPF about -0.174000 -0.001000 -0.047000
DOCKED: USER    NEWDPF tran0 23.538043 -7.061804 31.956430
DOCKED: USER    NEWDPF quaternion0 -0.027151 0.653383 0.138804 -0.743699
DOCKED: USER    NEWDPF axisangle0 -0.040614 0.977364 0.207630 -83.905134
DOCKED: USER    NEWDPF quat0 -0.040614 0.977364 0.207630 -83.905134
DOCKED: USER    NEWDPF dihe0 41.34 -69.27 81.23 -123.89 157.47 145.22 -64.57 51.89 -162.23 -174.47 
DOCKED: USER  keepresnum = 1 
DOCKED: USER  
DOCKED: REMARK  10 active torsions:
DOCKED: REMARK  status: ('A' for Active; 'I' for Inactive)
DOCKED: REMARK    1  A    between atoms: C_6  and  C_10 
DOCKED: REMARK    2  A    between atoms: C_10  and  C_11 
DOCKED: REMARK    3  A    between atoms: C_11  and  C_12 
DOCKED: REMARK    4  A    between atoms: C_12  and  O_14 
DOCKED: REMARK    5  A    between atoms: C_17  and  C_20 
DOCKED: REMARK    6  A    between atoms: C_24  and  C_27 
DOCKED: REMARK    7  A    between atoms: C_31  and  C_34 
DOCKED: REMARK    8  A    between atoms: C_34  and  C_35 
DOCKED: REMARK    9  A    between atoms: C_35  and  C_36 
DOCKED: REMARK   10  A    between atoms: C_36  and  O_38 
DOCKED: USER                              x       y       z     vdW  Elec       q    Type
DOCKED: USER                           _______ _______ _______ _____ _____    ______ ____
DOCKED: ROOT
DOCKED: ATOM      1  C   UNL d   1      23.852  -7.339  33.965 -0.34 +0.01    +0.064 C 
DOCKED: ATOM      2  C   UNL d   1      24.863  -9.950  29.892 -0.43 +0.00    +0.064 A 
DOCKED: ATOM      3  C   UNL d   1      23.992  -6.034  27.250 -0.43 +0.00    +0.064 C 
DOCKED: ATOM      4  C   UNL d   1      22.908  -3.518  31.171 -0.48 +0.01    +0.064 C 
DOCKED: ATOM      5  C   UNL d   1      24.136  -8.459  33.058 -0.32 +0.01    +0.066 A 
DOCKED: ATOM      6  C   UNL d   1      24.328  -9.772  33.457 -0.31 -0.00    -0.021 A 
DOCKED: ATOM      7  C   UNL d   1      24.612 -10.495  32.326 -0.31 -0.00    -0.025 A 
DOCKED: ATOM      8  C   UNL d   1      24.583  -9.596  31.278 -0.37 +0.01    +0.066 A 
DOCKED: ATOM      9  C   UNL d   1      24.877 -11.968  32.263 -0.12 +0.00    +0.051 C 
DOCKED: ATOM     10  C   UNL d   1      24.784  -9.114  28.855 -0.42 +0.00    +0.066 A 
DOCKED: ATOM     11  C   UNL d   1      25.169  -9.453  27.555 -0.48 -0.00    -0.021 A 
DOCKED: ATOM     12  C   UNL d   1      24.944  -8.335  26.777 -0.41 +0.00    +0.000 A 
DOCKED: ATOM     13  C   UNL d   1      24.436  -7.360  27.652 -0.36 +0.00    +0.070 A 
DOCKED: ATOM     14  C   UNL d   1      25.787 -10.756  27.090 -0.57 -0.00    +0.052 C 
DOCKED: ATOM     15  C   UNL d   1      23.551  -5.074  28.096 -0.37 +0.00    +0.066 A 
DOCKED: ATOM     16  C   UNL d   1      23.043  -3.856  27.663 -0.46 -0.00    -0.021 A 
DOCKED: ATOM     17  C   UNL d   1      22.733  -3.127  28.792 -0.48 +0.00    +0.000 A 
DOCKED: ATOM     18  C   UNL d   1      23.064  -3.917  29.890 -0.39 +0.01    +0.070 A 
DOCKED: ATOM     19  C   UNL d   1      22.877  -3.383  26.243 -0.50 +0.00    +0.052 C 
DOCKED: ATOM     20  C   UNL d   1      23.188  -4.345  32.351 -0.35 +0.01    +0.066 A 
DOCKED: ATOM     21  C   UNL d   1      23.223  -3.882  33.675 -0.38 -0.00    -0.025 A 
DOCKED: ATOM     22  C   UNL d   1      23.481  -4.990  34.455 -0.23 -0.00    -0.021 A 
DOCKED: ATOM     23  C   UNL d   1      23.599  -6.078  33.582 -0.21 +0.01    +0.066 A 
DOCKED: ATOM     24  C   UNL d   1      23.030  -2.474  34.187 -0.47 +0.01    +0.051 C 
DOCKED: ATOM     25  N   UNL d   1      24.283  -8.360  31.725 -0.22 -0.02    -0.248 N 
DOCKED: ATOM     26  N   UNL d   1      24.347  -7.831  28.920 -0.25 -0.01    -0.248 N 
DOCKED: ATOM     27  N   UNL d   1      23.526  -5.131  29.464 -0.25 -0.01    -0.248 N 
DOCKED: ATOM     28  N   UNL d   1      23.464  -5.670  32.296 -0.22 -0.03    -0.248 N 
DOCKED: ATOM     29 FE   UNL d   1      23.905  -6.749  30.609 -0.09 -0.00    +0.000 Fe
DOCKED: ENDROOT
DOCKED: BRANCH   6  30
DOCKED: ATOM     30  C   UNL d   1      24.226 -10.317  34.840 -0.25 +0.01    +0.052 C 
DOCKED: BRANCH  30  31
DOCKED: ATOM     31  C   UNL d   1      25.420  -9.881  35.682 +0.03 +0.07    +0.115 C 
DOCKED: BRANCH  31  32
DOCKED: ATOM     32  C   UNL d   1      24.973  -8.994  36.811 -0.12 +0.11    +0.139 C 
DOCKED: ATOM     33  O   UNL d   1      25.659  -8.869  37.815 -0.48 -0.98    -0.650 OA
DOCKED: BRANCH  32  34
DOCKED: ATOM     34  O   UNL d   1      23.809  -8.328  36.724 +0.04 -0.34    -0.776 OA
DOCKED: ATOM     35  H   UNL d   1      23.768  -7.412  37.034 +0.05 +0.07    +0.167 HD
DOCKED: ENDBRANCH  32  34
DOCKED: ENDBRANCH  31  32
DOCKED: ENDBRANCH  30  31
DOCKED: ENDBRANCH   6  30
DOCKED: BRANCH  22  36
DOCKED: ATOM     36  C   UNL d   1      23.653  -4.991  35.951 -0.25 +0.01    +0.052 C 
DOCKED: BRANCH  36  37
DOCKED: ATOM     37  C   UNL d   1      25.037  -4.472  36.309 -0.15 +0.04    +0.115 C 
DOCKED: BRANCH  37  38
DOCKED: ATOM     38  C   UNL d   1      25.741  -5.413  37.246 -0.20 +0.10    +0.139 C 
DOCKED: ATOM     39  O   UNL d   1      26.950  -5.576  37.177 -0.17 -0.87    -0.650 OA
DOCKED: BRANCH  38  40
DOCKED: ATOM     40  O   UNL d   1      25.037  -6.090  38.170 +0.02 -0.54    -0.776 OA
DOCKED: ATOM     41  H   UNL d   1      24.933  -7.047  38.074 +0.03 +0.14    +0.167 HD
DOCKED: ENDBRANCH  38  40
DOCKED: ENDBRANCH  37  38
DOCKED: ENDBRANCH  36  37
DOCKED: ENDBRANCH  22  36
DOCKED: BRANCH  12  42
DOCKED: ATOM     42  C   UNL d   1      25.226  -8.242  25.311 -0.53 +0.00    +0.004 C 
DOCKED: ATOM     43  C   UNL d   1      24.292  -7.804  24.457 -0.59 +0.00    +0.012 C 
DOCKED: ENDBRANCH  12  42
DOCKED: BRANCH  17  44
DOCKED: ATOM     44  C   UNL d   1      22.139  -1.771  28.819 -0.60 +0.00    +0.004 C 
DOCKED: ATOM     45  C   UNL d   1      22.848  -0.706  28.432 -0.68 +0.00    +0.012 C 
DOCKED: ENDBRANCH  17  44
DOCKED: TORSDOF 10
DOCKED: TER
DOCKED: ENDMDL
________________________________________________________________________________


	BEGINNING GENETIC ALGORITHM DOCKING 24 of 100
Run: 24 Seed: 1436315362 1880896987 [ Run 24 of 100 GA/GALS ]
Beginning LAMARCKIAN GENETIC ALGORITHM (LGA), with a maximum of 25000000 energy evaluations.

Final-Value: -17.896


	FINAL GENETIC ALGORITHM DOCKED STATE
	_______________________________________________


Detailed state:  trans 7.591 12.376 29.879 quatxyzw -0.238239 0.683407 0.009793 -0.690001 center -0.174 -0.001 -0.047 ntor 10 87.1195 68.2855 28.7032 -134.6861 179.8552 5.0008 -33.1893 49.7929 167.8529 133.4871
State:	  7.591  12.376  29.879  -0.329  0.944  0.014 -92.740     87.12   68.29   28.70 -134.69  179.86    5.00  -33.19   49.79  167.85  133.49

DOCKED: MODEL       24
DOCKED: USER    Run = 24
DOCKED: USER    DPF = D:/Protein_go_brrr/autodock/final/1A3N/heme_Fe/dock.dpf
DOCKED: USER  
DOCKED: USER    Estimated Free Energy of Binding    =  -12.48 kcal/mol  [=(1)+(2)+(3)-(4)]
DOCKED: USER    Estimated Inhibition Constant, Ki   =  712.16 pM (picomolar)  [Temperature = 298.15 K]
DOCKED: USER    
DOCKED: USER    (1) Final Intermolecular Energy     =  -15.46 kcal/mol
DOCKED: USER        vdW + Hbond + desolv Energy     =  -13.16 kcal/mol
DOCKED: USER        Electrostatic Energy            =   -2.30 kcal/mol
DOCKED: USER    (2) Final Total Internal Energy     =   -2.43 kcal/mol
DOCKED: USER    (3) Torsional Free Energy           =   +2.98 kcal/mol
DOCKED: USER    (4) Unbound System's Energy  [=(2)] =   -2.43 kcal/mol
DOCKED: USER    
DOCKED: USER    
DOCKED: USER    NEWDPF move heme_Fe_opt.pdbqt
DOCKED: USER    NEWDPF about -0.174000 -0.001000 -0.047000
DOCKED: USER    NEWDPF tran0 7.591393 12.376416 29.878644
DOCKED: USER    NEWDPF quaternion0 -0.238239 0.683407 0.009793 -0.690001
DOCKED: USER    NEWDPF axisangle0 -0.329146 0.944182 0.013530 -92.739555
DOCKED: USER    NEWDPF quat0 -0.329146 0.944182 0.013530 -92.739555
DOCKED: USER    NEWDPF dihe0 87.12 68.29 28.70 -134.69 179.86 5.00 -33.19 49.79 167.85 133.49 
DOCKED: USER  keepresnum = 1 
DOCKED: USER  
DOCKED: REMARK  10 active torsions:
DOCKED: REMARK  status: ('A' for Active; 'I' for Inactive)
DOCKED: REMARK    1  A    between atoms: C_6  and  C_10 
DOCKED: REMARK    2  A    between atoms: C_10  and  C_11 
DOCKED: REMARK    3  A    between atoms: C_11  and  C_12 
DOCKED: REMARK    4  A    between atoms: C_12  and  O_14 
DOCKED: REMARK    5  A    between atoms: C_17  and  C_20 
DOCKED: REMARK    6  A    between atoms: C_24  and  C_27 
DOCKED: REMARK    7  A    between atoms: C_31  and  C_34 
DOCKED: REMARK    8  A    between atoms: C_34  and  C_35 
DOCKED: REMARK    9  A    between atoms: C_35  and  C_36 
DOCKED: REMARK   10  A    between atoms: C_36  and  O_38 
DOCKED: USER                              x       y       z     vdW  Elec       q    Type
DOCKED: USER                           _______ _______ _______ _____ _____    ______ ____
DOCKED: ROOT
DOCKED: ATOM      1  C   UNL d   1       7.980  13.124  31.749 -0.26 +0.03    +0.064 C 
DOCKED: ATOM      2  C   UNL d   1       9.166   8.971  29.346 -0.30 +0.01    +0.064 A 
DOCKED: ATOM      3  C   UNL d   1       7.823  11.051  25.231 -0.38 +0.00    +0.064 C 
DOCKED: ATOM      4  C   UNL d   1       6.570  15.043  27.551 -0.47 +0.01    +0.064 C 
DOCKED: ATOM      5  C   UNL d   1       8.360  11.734  31.466 -0.14 +0.02    +0.066 A 
DOCKED: ATOM      6  C   UNL d   1       8.700  10.795  32.426 -0.33 -0.01    -0.021 A 
DOCKED: ATOM      7  C   UNL d   1       9.033   9.643  31.758 -0.40 -0.01    -0.025 A 
DOCKED: ATOM      8  C   UNL d   1       8.883   9.923  30.413 -0.37 +0.02    +0.066 A 
DOCKED: ATOM      9  C   UNL d   1       9.450   8.348  32.384 -0.47 +0.02    +0.051 C 
DOCKED: ATOM     10  C   UNL d   1       8.975   9.197  28.045 -0.39 +0.01    +0.066 A 
DOCKED: ATOM     11  C   UNL d   1       9.363   8.308  27.039 -0.41 -0.00    -0.021 A 
DOCKED: ATOM     12  C   UNL d   1       9.002   8.893  25.842 -0.44 +0.00    +0.000 A 
DOCKED: ATOM     13  C   UNL d   1       8.414  10.123  26.182 -0.35 +0.01    +0.070 A 
DOCKED: ATOM     14  C   UNL d   1      10.104   6.997  27.207 -0.33 +0.01    +0.052 C 
DOCKED: ATOM     15  C   UNL d   1       7.302  12.260  25.548 -0.35 +0.00    +0.066 A 
DOCKED: ATOM     16  C   UNL d   1       6.657  13.074  24.625 -0.37 -0.00    -0.021 A 
DOCKED: ATOM     17  C   UNL d   1       6.298  14.227  25.291 -0.41 +0.00    +0.000 A 
DOCKED: ATOM     18  C   UNL d   1       6.737  14.092  26.606 -0.35 +0.01    +0.070 A 
DOCKED: ATOM     19  C   UNL d   1       6.409  12.792  23.168 -0.41 +0.00    +0.052 C 
DOCKED: ATOM     20  C   UNL d   1       6.964  14.911  28.958 -0.38 +0.01    +0.066 A 
DOCKED: ATOM     21  C   UNL d   1       6.981  15.953  29.896 -0.34 -0.01    -0.025 A 
DOCKED: ATOM     22  C   UNL d   1       7.374  15.381  31.089 -0.30 -0.01    -0.021 A 
DOCKED: ATOM     23  C   UNL d   1       7.586  14.021  30.832 -0.23 +0.02    +0.066 A 
DOCKED: ATOM     24  C   UNL d   1       6.651  17.413  29.690 -0.22 +0.01    +0.051 C 
DOCKED: ATOM     25  N   UNL d   1       8.464  11.193  30.239 -0.21 -0.06    -0.248 N 
DOCKED: ATOM     26  N   UNL d   1       8.405  10.313  27.524 -0.24 -0.03    -0.248 N 
DOCKED: ATOM     27  N   UNL d   1       7.316  12.865  26.776 -0.23 -0.02    -0.248 N 
DOCKED: ATOM     28  N   UNL d   1       7.378  13.749  29.520 -0.15 -0.06    -0.248 N 
DOCKED: ATOM     29 FE   UNL d   1       7.891  12.033  28.522 -0.08 +0.00    +0.000 Fe
DOCKED: ENDROOT
DOCKED: BRANCH   6  30
DOCKED: ATOM     30  C   UNL d   1       8.689  10.974  33.906 -0.29 +0.03    +0.052 C 
DOCKED: BRANCH  30  31
DOCKED: ATOM     31  C   UNL d   1      10.105  11.172  34.436 -0.19 +0.11    +0.115 C 
DOCKED: BRANCH  31  32
DOCKED: ATOM     32  C   UNL d   1      10.098  12.095  35.623 -0.16 +0.14    +0.139 C 
DOCKED: ATOM     33  O   UNL d   1      11.140  12.379  36.198 -0.27 -1.06    -0.650 OA
DOCKED: BRANCH  32  34
DOCKED: ATOM     34  O   UNL d   1       8.942  12.619  36.064 +0.09 -0.60    -0.776 OA
DOCKED: ATOM     35  H   UNL d   1       8.663  13.485  35.734 +0.04 +0.14    +0.167 HD
DOCKED: ENDBRANCH  32  34
DOCKED: ENDBRANCH  31  32
DOCKED: ENDBRANCH  30  31
DOCKED: ENDBRANCH   6  30
DOCKED: BRANCH  22  36
DOCKED: ATOM     36  C   UNL d   1       7.580  16.112  32.389 -0.26 +0.03    +0.052 C 
DOCKED: BRANCH  36  37
DOCKED: ATOM     37  C   UNL d   1       8.941  15.754  32.969 -0.09 +0.06    +0.115 C 
DOCKED: BRANCH  37  38
DOCKED: ATOM     38  C   UNL d   1       8.825  15.371  34.417 -0.13 +0.10    +0.139 C 
DOCKED: ATOM     39  O   UNL d   1       7.732  15.287  34.956 -0.19 -0.87    -0.650 OA
DOCKED: BRANCH  38  40
DOCKED: ATOM     40  O   UNL d   1       9.934  15.120  35.136 +0.04 -0.50    -0.776 OA
DOCKED: ATOM     41  H   UNL d   1      10.104  14.217  35.438 +0.04 +0.13    +0.167 HD
DOCKED: ENDBRANCH  38  40
DOCKED: ENDBRANCH  37  38
DOCKED: ENDBRANCH  36  37
DOCKED: ENDBRANCH  22  36
DOCKED: BRANCH  12  42
DOCKED: ATOM     42  C   UNL d   1       9.237   8.293  24.492 -0.64 +0.00    +0.004 C 
DOCKED: ATOM     43  C   UNL d   1       8.466   7.298  24.036 -0.68 +0.00    +0.012 C 
DOCKED: ENDBRANCH  12  42
DOCKED: BRANCH  17  44
DOCKED: ATOM     44  C   UNL d   1       5.564  15.376  24.712 -0.55 +0.00    +0.004 C 
DOCKED: ATOM     45  C   UNL d   1       6.202  16.300  23.987 -0.58 +0.00    +0.012 C 
DOCKED: ENDBRANCH  17  44
DOCKED: TORSDOF 10
DOCKED: TER
DOCKED: ENDMDL
________________________________________________________________________________


	BEGINNING GENETIC ALGORITHM DOCKING 25 of 100
Run: 25 Seed: 1610571438 1211781584 [ Run 25 of 100 GA/GALS ]
Beginning LAMARCKIAN GENETIC ALGORITHM (LGA), with a maximum of 25000000 energy evaluations.

Final-Value: -15.394


	FINAL GENETIC ALGORITHM DOCKED STATE
	_______________________________________________


Detailed state:  trans 23.695 -6.105 34.240 quatxyzw -0.726930 -0.044847 0.680906 0.076998 center -0.174 -0.001 -0.047 ntor 10 -172.3619 -176.9895 23.7019 84.9934 -72.2914 -107.8671 51.3667 -134.5221 -35.3508 -40.8777
State:	 23.695  -6.105  34.240  -0.729 -0.045  0.683 171.168   -172.36 -176.99   23.70   84.99  -72.29 -107.87   51.37 -134.52  -35.35  -40.88

DOCKED: MODEL       25
DOCKED: USER    Run = 25
DOCKED: USER    DPF = D:/Protein_go_brrr/autodock/final/1A3N/heme_Fe/dock.dpf
DOCKED: USER  
DOCKED: USER    Estimated Free Energy of Binding    =  -10.71 kcal/mol  [=(1)+(2)+(3)-(4)]
DOCKED: USER    Estimated Inhibition Constant, Ki   =   14.08 nM (nanomolar)  [Temperature = 298.15 K]
DOCKED: USER    
DOCKED: USER    (1) Final Intermolecular Energy     =  -13.69 kcal/mol
DOCKED: USER        vdW + Hbond + desolv Energy     =  -11.87 kcal/mol
DOCKED: USER        Electrostatic Energy            =   -1.83 kcal/mol
DOCKED: USER    (2) Final Total Internal Energy     =   -1.70 kcal/mol
DOCKED: USER    (3) Torsional Free Energy           =   +2.98 kcal/mol
DOCKED: USER    (4) Unbound System's Energy  [=(2)] =   -1.70 kcal/mol
DOCKED: USER    
DOCKED: USER    
DOCKED: USER    NEWDPF move heme_Fe_opt.pdbqt
DOCKED: USER    NEWDPF about -0.174000 -0.001000 -0.047000
DOCKED: USER    NEWDPF tran0 23.694949 -6.105492 34.239896
DOCKED: USER    NEWDPF quaternion0 -0.726930 -0.044847 0.680906 0.076998
DOCKED: USER    NEWDPF axisangle0 -0.729094 -0.044981 0.682934 171.167966
DOCKED: USER    NEWDPF quat0 -0.729094 -0.044981 0.682934 171.167966
DOCKED: USER    NEWDPF dihe0 -172.36 -176.99 23.70 84.99 -72.29 -107.87 51.37 -134.52 -35.35 -40.88 
DOCKED: USER  keepresnum = 1 
DOCKED: USER  
DOCKED: REMARK  10 active torsions:
DOCKED: REMARK  status: ('A' for Active; 'I' for Inactive)
DOCKED: REMARK    1  A    between atoms: C_6  and  C_10 
DOCKED: REMARK    2  A    between atoms: C_10  and  C_11 
DOCKED: REMARK    3  A    between atoms: C_11  and  C_12 
DOCKED: REMARK    4  A    between atoms: C_12  and  O_14 
DOCKED: REMARK    5  A    between atoms: C_17  and  C_20 
DOCKED: REMARK    6  A    between atoms: C_24  and  C_27 
DOCKED: REMARK    7  A    between atoms: C_31  and  C_34 
DOCKED: REMARK    8  A    between atoms: C_34  and  C_35 
DOCKED: REMARK    9  A    between atoms: C_35  and  C_36 
DOCKED: REMARK   10  A    between atoms: C_36  and  O_38 
DOCKED: USER                              x       y       z     vdW  Elec       q    Type
DOCKED: USER                           _______ _______ _______ _____ _____    ______ ____
DOCKED: ROOT
DOCKED: ATOM      1  C   UNL d   1      23.026  -6.061  36.179 -0.21 +0.02    +0.064 C 
DOCKED: ATOM      2  C   UNL d   1      22.902  -2.900  32.381 -0.45 +0.01    +0.064 A 
DOCKED: ATOM      3  C   UNL d   1      24.078  -6.504  29.433 -0.31 +0.00    +0.064 C 
DOCKED: ATOM      4  C   UNL d   1      24.307  -9.558  33.108 -0.35 +0.01    +0.064 C 
DOCKED: ATOM      5  C   UNL d   1      22.964  -4.820  35.395 -0.23 +0.01    +0.066 A 
DOCKED: ATOM      6  C   UNL d   1      22.757  -3.558  35.928 -0.25 -0.00    -0.021 A 
DOCKED: ATOM      7  C   UNL d   1      22.719  -2.681  34.872 -0.38 -0.00    -0.025 A 
DOCKED: ATOM      8  C   UNL d   1      22.905  -3.442  33.734 -0.38 +0.01    +0.066 A 
DOCKED: ATOM      9  C   UNL d   1      22.535  -1.197  34.963 -0.37 +0.00    +0.051 C 
DOCKED: ATOM     10  C   UNL d   1      23.135  -3.603  31.272 -0.41 +0.01    +0.066 A 
DOCKED: ATOM     11  C   UNL d   1      23.013  -3.079  29.983 -0.45 -0.00    -0.021 A 
DOCKED: ATOM     12  C   UNL d   1      23.330  -4.103  29.113 -0.43 +0.00    +0.000 A 
DOCKED: ATOM     13  C   UNL d   1      23.625  -5.213  29.925 -0.36 +0.00    +0.070 A 
DOCKED: ATOM     14  C   UNL d   1      22.549  -1.689  29.595 -0.57 +0.00    +0.052 C 
DOCKED: ATOM     15  C   UNL d   1      24.313  -7.590  30.207 -0.22 +0.00    +0.066 A 
DOCKED: ATOM     16  C   UNL d   1      24.840  -8.776  29.710 -0.37 -0.00    -0.021 A 
DOCKED: ATOM     17  C   UNL d   1      24.904  -9.659  30.768 -0.45 +0.00    +0.000 A 
DOCKED: ATOM     18  C   UNL d   1      24.409  -8.992  31.886 -0.34 +0.01    +0.070 A 
DOCKED: ATOM     19  C   UNL d   1      25.246  -9.078  28.293 -0.43 +0.00    +0.052 C 
DOCKED: ATOM     20  C   UNL d   1      23.849  -8.868  34.320 -0.28 +0.02    +0.066 A 
DOCKED: ATOM     21  C   UNL d   1      23.549  -9.489  35.541 -0.22 -0.01    -0.025 A 
DOCKED: ATOM     22  C   UNL d   1      23.198  -8.472  36.405 -0.20 -0.01    -0.021 A 
DOCKED: ATOM     23  C   UNL d   1      23.291  -7.278  35.680 -0.22 +0.02    +0.066 A 
DOCKED: ATOM     24  C   UNL d   1      23.583 -10.960  35.885 -0.19 +0.01    +0.051 C 
DOCKED: ATOM     25  N   UNL d   1      23.062  -4.742  34.057 -0.22 -0.04    -0.248 N 
DOCKED: ATOM     26  N   UNL d   1      23.497  -4.911  31.240 -0.22 -0.04    -0.248 N 
DOCKED: ATOM     27  N   UNL d   1      24.086  -7.706  31.552 -0.14 -0.01    -0.248 N 
DOCKED: ATOM     28  N   UNL d   1      23.645  -7.531  34.396 -0.19 -0.06    -0.248 N 
DOCKED: ATOM     29 FE   UNL d   1      23.572  -6.223  32.819 -0.08 +0.00    +0.000 Fe
DOCKED: ENDROOT
DOCKED: BRANCH   6  30
DOCKED: ATOM     30  C   UNL d   1      22.624  -3.197  37.368 -0.16 +0.01    +0.052 C 
DOCKED: BRANCH  30  31
DOCKED: ATOM     31  C   UNL d   1      23.815  -3.716  38.167 -0.09 +0.03    +0.115 C 
DOCKED: BRANCH  31  32
DOCKED: ATOM     32  C   UNL d   1      23.345  -4.498  39.362 -0.04 +0.03    +0.139 C 
DOCKED: ATOM     33  O   UNL d   1      22.846  -3.929  40.323 +0.02 -0.12    -0.650 OA
DOCKED: BRANCH  32  34
DOCKED: ATOM     34  O   UNL d   1      23.471  -5.835  39.386 +0.04 -0.23    -0.776 OA
DOCKED: ATOM     35  H   UNL d   1      23.965  -6.273  38.678 +0.03 +0.07    +0.167 HD
DOCKED: ENDBRANCH  32  34
DOCKED: ENDBRANCH  31  32
DOCKED: ENDBRANCH  30  31
DOCKED: ENDBRANCH   6  30
DOCKED: BRANCH  22  36
DOCKED: ATOM     36  C   UNL d   1      22.752  -8.646  37.833 -0.16 +0.01    +0.052 C 
DOCKED: BRANCH  36  37
DOCKED: ATOM     37  C   UNL d   1      23.811  -9.412  38.612 -0.08 +0.05    +0.115 C 
DOCKED: BRANCH  37  38
DOCKED: ATOM     38  C   UNL d   1      25.187  -8.891  38.307 -0.06 +0.14    +0.139 C 
DOCKED: ATOM     39  O   UNL d   1      25.967  -9.545  37.631 -0.30 -0.89    -0.650 OA
DOCKED: BRANCH  38  40
DOCKED: ATOM     40  O   UNL d   1      25.571  -7.693  38.783 -0.42 -1.00    -0.776 OA
DOCKED: ATOM     41  H   UNL d   1      24.967  -7.198  39.353 +0.02 +0.12    +0.167 HD
DOCKED: ENDBRANCH  38  40
DOCKED: ENDBRANCH  37  38
DOCKED: ENDBRANCH  36  37
DOCKED: ENDBRANCH  22  36
DOCKED: BRANCH  12  42
DOCKED: ATOM     42  C   UNL d   1      23.322  -3.994  27.622 -0.54 +0.00    +0.004 C 
DOCKED: ATOM     43  C   UNL d   1      24.260  -3.287  26.977 -0.57 +0.00    +0.012 C 
DOCKED: ENDBRANCH  12  42
DOCKED: BRANCH  17  44
DOCKED: ATOM     44  C   UNL d   1      25.423 -11.044  30.716 -0.35 +0.00    +0.004 C 
DOCKED: ATOM     45  C   UNL d   1      26.185 -11.527  31.704 -0.26 +0.00    +0.012 C 
DOCKED: ENDBRANCH  17  44
DOCKED: TORSDOF 10
DOCKED: TER
DOCKED: ENDMDL
________________________________________________________________________________


	BEGINNING GENETIC ALGORITHM DOCKING 26 of 100
Run: 26 Seed: 670336086 2098070976 [ Run 26 of 100 GA/GALS ]
Beginning LAMARCKIAN GENETIC ALGORITHM (LGA), with a maximum of 25000000 energy evaluations.

Final-Value: -17.713


	FINAL GENETIC ALGORITHM DOCKED STATE
	_______________________________________________


Detailed state:  trans 2.764 -6.733 -4.318 quatxyzw -0.281779 -0.710493 -0.080875 -0.639734 center -0.174 -0.001 -0.047 ntor 10 77.9658 104.7797 92.7850 -131.8709 159.4410 -136.5902 -39.6796 67.1445 160.0847 180.0000
State:	  2.764  -6.733  -4.318  -0.367 -0.924 -0.105 -100.456     77.97  104.78   92.78 -131.87  159.44 -136.59  -39.68   67.14  160.08  180.00

DOCKED: MODEL       26
DOCKED: USER    Run = 26
DOCKED: USER    DPF = D:/Protein_go_brrr/autodock/final/1A3N/heme_Fe/dock.dpf
DOCKED: USER  
DOCKED: USER    Estimated Free Energy of Binding    =  -13.23 kcal/mol  [=(1)+(2)+(3)-(4)]
DOCKED: USER    Estimated Inhibition Constant, Ki   =  200.42 pM (picomolar)  [Temperature = 298.15 K]
DOCKED: USER    
DOCKED: USER    (1) Final Intermolecular Energy     =  -16.21 kcal/mol
DOCKED: USER        vdW + Hbond + desolv Energy     =  -14.37 kcal/mol
DOCKED: USER        Electrostatic Energy            =   -1.85 kcal/mol
DOCKED: USER    (2) Final Total Internal Energy     =   -1.50 kcal/mol
DOCKED: USER    (3) Torsional Free Energy           =   +2.98 kcal/mol
DOCKED: USER    (4) Unbound System's Energy  [=(2)] =   -1.50 kcal/mol
DOCKED: USER    
DOCKED: USER    
DOCKED: USER    NEWDPF move heme_Fe_opt.pdbqt
DOCKED: USER    NEWDPF about -0.174000 -0.001000 -0.047000
DOCKED: USER    NEWDPF tran0 2.764065 -6.733435 -4.318051
DOCKED: USER    NEWDPF quaternion0 -0.281779 -0.710493 -0.080875 -0.639734
DOCKED: USER    NEWDPF axisangle0 -0.366615 -0.924403 -0.105225 -100.456041
DOCKED: USER    NEWDPF quat0 -0.366615 -0.924403 -0.105225 -100.456041
DOCKED: USER    NEWDPF dihe0 77.97 104.78 92.78 -131.87 159.44 -136.59 -39.68 67.14 160.08 180.00 
DOCKED: USER  keepresnum = 1 
DOCKED: USER  
DOCKED: REMARK  10 active torsions:
DOCKED: REMARK  status: ('A' for Active; 'I' for Inactive)
DOCKED: REMARK    1  A    between atoms: C_6  and  C_10 
DOCKED: REMARK    2  A    between atoms: C_10  and  C_11 
DOCKED: REMARK    3  A    between atoms: C_11  and  C_12 
DOCKED: REMARK    4  A    between atoms: C_12  and  O_14 
DOCKED: REMARK    5  A    between atoms: C_17  and  C_20 
DOCKED: REMARK    6  A    between atoms: C_24  and  C_27 
DOCKED: REMARK    7  A    between atoms: C_31  and  C_34 
DOCKED: REMARK    8  A    between atoms: C_34  and  C_35 
DOCKED: REMARK    9  A    between atoms: C_35  and  C_36 
DOCKED: REMARK   10  A    between atoms: C_36  and  O_38 
DOCKED: USER                              x       y       z     vdW  Elec       q    Type
DOCKED: USER                           _______ _______ _______ _____ _____    ______ ____
DOCKED: ROOT
DOCKED: ATOM      1  C   UNL d   1       2.320  -7.118  -6.284 -0.31 +0.02    +0.064 C 
DOCKED: ATOM      2  C   UNL d   1       0.729  -8.879  -1.949 -0.40 +0.00    +0.064 A 
DOCKED: ATOM      3  C   UNL d   1       2.775  -5.129   0.247 -0.41 +0.00    +0.064 C 
DOCKED: ATOM      4  C   UNL d   1       4.414  -3.462  -3.927 -0.49 +0.01    +0.064 C 
DOCKED: ATOM      5  C   UNL d   1       1.754  -8.005  -5.259 -0.32 +0.01    +0.066 A 
DOCKED: ATOM      6  C   UNL d   1       1.179  -9.240  -5.512 -0.31 -0.00    -0.021 A 
DOCKED: ATOM      7  C   UNL d   1       0.734  -9.727  -4.308 -0.33 -0.00    -0.025 A 
DOCKED: ATOM      8  C   UNL d   1       1.055  -8.769  -3.365 -0.31 +0.01    +0.066 A 
DOCKED: ATOM      9  C   UNL d   1       0.058 -11.045  -4.084 -0.17 +0.00    +0.051 C 
DOCKED: ATOM     10  C   UNL d   1       1.078  -7.997  -1.010 -0.38 +0.00    +0.066 A 
DOCKED: ATOM     11  C   UNL d   1       0.653  -8.072   0.319 -0.43 -0.00    -0.021 A 
DOCKED: ATOM     12  C   UNL d   1       1.215  -6.992   0.969 -0.34 +0.00    +0.000 A 
DOCKED: ATOM     13  C   UNL d   1       1.955  -6.303  -0.008 -0.37 +0.00    +0.070 A 
DOCKED: ATOM     14  C   UNL d   1      -0.299  -9.083   0.924 -0.59 -0.00    +0.052 C 
DOCKED: ATOM     15  C   UNL d   1       3.447  -4.432  -0.700 -0.37 +0.00    +0.066 A 
DOCKED: ATOM     16  C   UNL d   1       4.299  -3.376  -0.403 -0.47 -0.00    -0.021 A 
DOCKED: ATOM     17  C   UNL d   1       4.770  -2.891  -1.605 -0.48 +0.00    +0.000 A 
DOCKED: ATOM     18  C   UNL d   1       4.190  -3.663  -2.610 -0.39 +0.01    +0.070 A 
DOCKED: ATOM     19  C   UNL d   1       4.638  -2.825   0.956 -0.48 +0.00    +0.052 C 
DOCKED: ATOM     20  C   UNL d   1       3.870  -4.292  -5.009 -0.40 +0.01    +0.066 A 
DOCKED: ATOM     21  C   UNL d   1       3.928  -3.981  -6.375 -0.42 -0.00    -0.025 A 
DOCKED: ATOM     22  C   UNL d   1       3.337  -5.042  -7.029 -0.33 -0.00    -0.021 A 
DOCKED: ATOM     23  C   UNL d   1       2.938  -5.951  -6.042 -0.27 +0.02    +0.066 A 
DOCKED: ATOM     24  C   UNL d   1       4.503  -2.752  -7.039 -0.42 +0.00    +0.051 C 
DOCKED: ATOM     25  N   UNL d   1       1.684  -7.728  -3.945 -0.20 -0.02    -0.248 N 
DOCKED: ATOM     26  N   UNL d   1       1.865  -6.911  -1.216 -0.24 -0.00    -0.248 N 
DOCKED: ATOM     27  N   UNL d   1       3.411  -4.638  -2.053 -0.23 -0.01    -0.248 N 
DOCKED: ATOM     28  N   UNL d   1       3.226  -5.467  -4.809 -0.24 -0.05    -0.248 N 
DOCKED: ATOM     29 FE   UNL d   1       2.546  -6.187  -3.013 -0.09 -0.00    +0.000 Fe
DOCKED: ENDROOT
DOCKED: BRANCH   6  30
DOCKED: ATOM     30  C   UNL d   1       1.075  -9.934  -6.827 -0.24 +0.01    +0.052 C 
DOCKED: BRANCH  30  31
DOCKED: ATOM     31  C   UNL d   1      -0.373  -9.979  -7.301 -0.18 +0.04    +0.115 C 
DOCKED: BRANCH  31  32
DOCKED: ATOM     32  C   UNL d   1      -0.449  -9.738  -8.783 -0.13 +0.07    +0.139 C 
DOCKED: ATOM     33  O   UNL d   1      -1.429 -10.093  -9.423 -0.02 -0.31    -0.650 OA
DOCKED: BRANCH  32  34
DOCKED: ATOM     34  O   UNL d   1       0.564  -9.128  -9.421 +0.03 -0.35    -0.776 OA
DOCKED: ATOM     35  H   UNL d   1       0.475  -8.194  -9.658 +0.03 +0.11    +0.167 HD
DOCKED: ENDBRANCH  32  34
DOCKED: ENDBRANCH  31  32
DOCKED: ENDBRANCH  30  31
DOCKED: ENDBRANCH   6  30
DOCKED: BRANCH  22  36
DOCKED: ATOM     36  C   UNL d   1       3.125  -5.151  -8.516 -0.28 +0.01    +0.052 C 
DOCKED: BRANCH  36  37
DOCKED: ATOM     37  C   UNL d   1       1.859  -4.404  -8.910 -0.30 +0.05    +0.115 C 
DOCKED: BRANCH  37  38
DOCKED: ATOM     38  C   UNL d   1       0.807  -5.353  -9.411 -0.22 +0.14    +0.139 C 
DOCKED: ATOM     39  O   UNL d   1       0.147  -5.087 -10.405 -0.35 -0.83    -0.650 OA
DOCKED: BRANCH  38  40
DOCKED: ATOM     40  O   UNL d   1       0.582  -6.509  -8.762 -0.20 -0.88    -0.776 OA
DOCKED: ATOM     41  H   UNL d   1       1.213  -7.236  -8.864 +0.05 +0.11    +0.167 HD
DOCKED: ENDBRANCH  38  40
DOCKED: ENDBRANCH  37  38
DOCKED: ENDBRANCH  36  37
DOCKED: ENDBRANCH  22  36
DOCKED: BRANCH  12  42
DOCKED: ATOM     42  C   UNL d   1       1.019  -6.667   2.416 -0.51 +0.00    +0.004 C 
DOCKED: ATOM     43  C   UNL d   1       2.033  -6.209   3.163 -0.56 +0.00    +0.012 C 
DOCKED: ENDBRANCH  12  42
DOCKED: BRANCH  17  44
DOCKED: ATOM     44  C   UNL d   1       5.728  -1.777  -1.780 -0.64 +0.00    +0.004 C 
DOCKED: ATOM     45  C   UNL d   1       5.328  -0.506  -1.668 -0.67 +0.00    +0.012 C 
DOCKED: ENDBRANCH  17  44
DOCKED: TORSDOF 10
DOCKED: TER
DOCKED: ENDMDL
________________________________________________________________________________


	BEGINNING GENETIC ALGORITHM DOCKING 27 of 100
Run: 27 Seed: 1549902067 1460690333 [ Run 27 of 100 GA/GALS ]
Beginning LAMARCKIAN GENETIC ALGORITHM (LGA), with a maximum of 25000000 energy evaluations.

Final-Value: -17.523


	FINAL GENETIC ALGORITHM DOCKED STATE
	_______________________________________________


Detailed state:  trans 1.929 -6.449 -4.908 quatxyzw 0.717090 -0.071291 0.619823 -0.310675 center -0.174 -0.001 -0.047 ntor 10 136.5654 -155.6155 61.6566 -125.9592 158.2315 41.6250 93.8748 -32.8978 20.9324 9.9166
State:	  1.929  -6.449  -4.908   0.754 -0.075  0.652 -143.800    136.57 -155.62   61.66 -125.96  158.23   41.62   93.87  -32.90   20.93    9.92

DOCKED: MODEL       27
DOCKED: USER    Run = 27
DOCKED: USER    DPF = D:/Protein_go_brrr/autodock/final/1A3N/heme_Fe/dock.dpf
DOCKED: USER  
DOCKED: USER    Estimated Free Energy of Binding    =  -12.87 kcal/mol  [=(1)+(2)+(3)-(4)]
DOCKED: USER    Estimated Inhibition Constant, Ki   =  366.96 pM (picomolar)  [Temperature = 298.15 K]
DOCKED: USER    
DOCKED: USER    (1) Final Intermolecular Energy     =  -15.86 kcal/mol
DOCKED: USER        vdW + Hbond + desolv Energy     =  -13.70 kcal/mol
DOCKED: USER        Electrostatic Energy            =   -2.15 kcal/mol
DOCKED: USER    (2) Final Total Internal Energy     =   -1.67 kcal/mol
DOCKED: USER    (3) Torsional Free Energy           =   +2.98 kcal/mol
DOCKED: USER    (4) Unbound System's Energy  [=(2)] =   -1.67 kcal/mol
DOCKED: USER    
DOCKED: USER    
DOCKED: USER    NEWDPF move heme_Fe_opt.pdbqt
DOCKED: USER    NEWDPF about -0.174000 -0.001000 -0.047000
DOCKED: USER    NEWDPF tran0 1.929141 -6.449394 -4.907637
DOCKED: USER    NEWDPF quaternion0 0.717090 -0.071291 0.619823 -0.310675
DOCKED: USER    NEWDPF axisangle0 0.754421 -0.075003 0.652091 -143.800186
DOCKED: USER    NEWDPF quat0 0.754421 -0.075003 0.652091 -143.800186
DOCKED: USER    NEWDPF dihe0 136.57 -155.62 61.66 -125.96 158.23 41.62 93.87 -32.90 20.93 9.92 
DOCKED: USER  keepresnum = 1 
DOCKED: USER  
DOCKED: REMARK  10 active torsions:
DOCKED: REMARK  status: ('A' for Active; 'I' for Inactive)
DOCKED: REMARK    1  A    between atoms: C_6  and  C_10 
DOCKED: REMARK    2  A    between atoms: C_10  and  C_11 
DOCKED: REMARK    3  A    between atoms: C_11  and  C_12 
DOCKED: REMARK    4  A    between atoms: C_12  and  O_14 
DOCKED: REMARK    5  A    between atoms: C_17  and  C_20 
DOCKED: REMARK    6  A    between atoms: C_24  and  C_27 
DOCKED: REMARK    7  A    between atoms: C_31  and  C_34 
DOCKED: REMARK    8  A    between atoms: C_34  and  C_35 
DOCKED: REMARK    9  A    between atoms: C_35  and  C_36 
DOCKED: REMARK   10  A    between atoms: C_36  and  O_38 
DOCKED: USER                              x       y       z     vdW  Elec       q    Type
DOCKED: USER                           _______ _______ _______ _____ _____    ______ ____
DOCKED: ROOT
DOCKED: ATOM      1  C   UNL d   1       1.969  -7.247  -6.798 -0.27 +0.02    +0.064 C 
DOCKED: ATOM      2  C   UNL d   1       4.234  -3.461  -4.570 -0.42 +0.01    +0.064 A 
DOCKED: ATOM      3  C   UNL d   1       2.883  -5.244  -0.320 -0.42 +0.00    +0.064 C 
DOCKED: ATOM      4  C   UNL d   1       0.595  -8.859  -2.460 -0.45 +0.00    +0.064 C 
DOCKED: ATOM      5  C   UNL d   1       2.660  -5.971  -6.569 -0.14 +0.02    +0.066 A 
DOCKED: ATOM      6  C   UNL d   1       3.097  -5.117  -7.569 -0.31 -0.01    -0.021 A 
DOCKED: ATOM      7  C   UNL d   1       3.729  -4.068  -6.949 -0.39 -0.00    -0.025 A 
DOCKED: ATOM      8  C   UNL d   1       3.654  -4.321  -5.593 -0.38 +0.01    +0.066 A 
DOCKED: ATOM      9  C   UNL d   1       4.350  -2.886  -7.628 -0.42 -0.00    +0.051 C 
DOCKED: ATOM     10  C   UNL d   1       4.126  -3.652  -3.254 -0.40 +0.01    +0.066 A 
DOCKED: ATOM     11  C   UNL d   1       4.789  -2.875  -2.301 -0.46 -0.00    -0.021 A 
DOCKED: ATOM     12  C   UNL d   1       4.429  -3.379  -1.067 -0.46 +0.00    +0.000 A 
DOCKED: ATOM     13  C   UNL d   1       3.563  -4.454  -1.334 -0.36 +0.00    +0.070 A 
DOCKED: ATOM     14  C   UNL d   1       5.771  -1.750  -2.555 -0.55 +0.00    +0.052 C 
DOCKED: ATOM     15  C   UNL d   1       2.090  -6.312  -0.571 -0.37 +0.00    +0.066 A 
DOCKED: ATOM     16  C   UNL d   1       1.379  -6.978   0.419 -0.36 -0.00    -0.021 A 
DOCKED: ATOM     17  C   UNL d   1       0.721  -8.023  -0.195 -0.43 +0.00    +0.000 A 
DOCKED: ATOM     18  C   UNL d   1       1.050  -7.972  -1.548 -0.36 +0.00    +0.070 A 
DOCKED: ATOM     19  C   UNL d   1       1.338  -6.662   1.890 -0.45 +0.00    +0.052 C 
DOCKED: ATOM     20  C   UNL d   1       0.870  -8.800  -3.901 -0.34 +0.01    +0.066 A 
DOCKED: ATOM     21  C   UNL d   1       0.575  -9.814  -4.823 -0.31 -0.00    -0.025 A 
DOCKED: ATOM     22  C   UNL d   1       0.964  -9.329  -6.055 -0.28 -0.00    -0.021 A 
DOCKED: ATOM     23  C   UNL d   1       1.483  -8.047  -5.836 -0.30 +0.02    +0.066 A 
DOCKED: ATOM     24  C   UNL d   1      -0.035 -11.173  -4.569 -0.15 +0.00    +0.051 C 
DOCKED: ATOM     25  N   UNL d   1       2.994  -5.475  -5.365 -0.23 -0.06    -0.248 N 
DOCKED: ATOM     26  N   UNL d   1       3.385  -4.626  -2.667 -0.24 -0.02    -0.248 N 
DOCKED: ATOM     27  N   UNL d   1       1.856  -6.895  -1.787 -0.23 -0.00    -0.248 N 
DOCKED: ATOM     28  N   UNL d   1       1.465  -7.748  -4.514 -0.23 -0.04    -0.248 N 
DOCKED: ATOM     29 FE   UNL d   1       2.424  -6.189  -3.590 -0.08 +0.00    +0.000 Fe
DOCKED: ENDROOT
DOCKED: BRANCH   6  30
DOCKED: ATOM     30  C   UNL d   1       2.906  -5.278  -9.038 -0.24 +0.02    +0.052 C 
DOCKED: BRANCH  30  31
DOCKED: ATOM     31  C   UNL d   1       1.927  -4.238  -9.573 -0.27 +0.05    +0.115 C 
DOCKED: BRANCH  31  32
DOCKED: ATOM     32  C   UNL d   1       0.512  -4.726  -9.433 -0.15 +0.15    +0.139 C 
DOCKED: ATOM     33  O   UNL d   1      -0.421  -3.936  -9.419 -0.02 -0.91    -0.650 OA
DOCKED: BRANCH  32  34
DOCKED: ATOM     34  O   UNL d   1       0.260  -6.041  -9.322 -0.44 -1.23    -0.776 OA
DOCKED: ATOM     35  H   UNL d   1       0.731  -6.660  -9.899 +0.04 +0.16    +0.167 HD
DOCKED: ENDBRANCH  32  34
DOCKED: ENDBRANCH  31  32
DOCKED: ENDBRANCH  30  31
DOCKED: ENDBRANCH   6  30
DOCKED: BRANCH  22  36
DOCKED: ATOM     36  C   UNL d   1       0.884 -10.076  -7.360 -0.21 +0.01    +0.052 C 
DOCKED: BRANCH  36  37
DOCKED: ATOM     37  C   UNL d   1      -0.243  -9.507  -8.209 -0.16 +0.06    +0.115 C 
DOCKED: BRANCH  37  38
DOCKED: ATOM     38  C   UNL d   1       0.099  -9.570  -9.671 -0.10 +0.06    +0.139 C 
DOCKED: ATOM     39  O   UNL d   1       0.645 -10.556 -10.143 +0.02 -0.16    -0.650 OA
DOCKED: BRANCH  38  40
DOCKED: ATOM     40  O   UNL d   1      -0.192  -8.531 -10.474 -0.01 -0.53    -0.776 OA
DOCKED: ATOM     41  H   UNL d   1      -0.283  -7.649 -10.087 +0.02 +0.19    +0.167 HD
DOCKED: ENDBRANCH  38  40
DOCKED: ENDBRANCH  37  38
DOCKED: ENDBRANCH  36  37
DOCKED: ENDBRANCH  22  36
DOCKED: BRANCH  12  42
DOCKED: ATOM     42  C   UNL d   1       4.915  -2.855   0.246 -0.51 +0.00    +0.004 C 
DOCKED: ATOM     43  C   UNL d   1       4.093  -2.194   1.071 -0.63 +0.00    +0.012 C 
DOCKED: ENDBRANCH  12  42
DOCKED: BRANCH  17  44
DOCKED: ATOM     44  C   UNL d   1      -0.180  -8.994   0.465 -0.60 -0.00    +0.004 C 
DOCKED: ATOM     45  C   UNL d   1       0.307  -9.937   1.279 -0.66 -0.00    +0.012 C 
DOCKED: ENDBRANCH  17  44
DOCKED: TORSDOF 10
DOCKED: TER
DOCKED: ENDMDL
________________________________________________________________________________


	BEGINNING GENETIC ALGORITHM DOCKING 28 of 100
Run: 28 Seed: 541951662 1106562850 [ Run 28 of 100 GA/GALS ]
Beginning LAMARCKIAN GENETIC ALGORITHM (LGA), with a maximum of 25000000 energy evaluations.

Final-Value: -15.157


	FINAL GENETIC ALGORITHM DOCKED STATE
	_______________________________________________


Detailed state:  trans 8.847 13.880 31.380 quatxyzw 0.419675 0.322117 -0.829457 0.179205 center -0.174 -0.001 -0.047 ntor 10 72.7006 -150.2001 27.5876 43.0822 163.1552 89.5529 -67.1859 121.9685 -174.1063 -178.8501
State:	  8.847  13.880  31.380   0.427  0.327 -0.843 159.353     72.70 -150.20   27.59   43.08  163.16   89.55  -67.19  121.97 -174.11 -178.85

DOCKED: MODEL       28
DOCKED: USER    Run = 28
DOCKED: USER    DPF = D:/Protein_go_brrr/autodock/final/1A3N/heme_Fe/dock.dpf
DOCKED: USER  
DOCKED: USER    Estimated Free Energy of Binding    =  -10.13 kcal/mol  [=(1)+(2)+(3)-(4)]
DOCKED: USER    Estimated Inhibition Constant, Ki   =   37.42 nM (nanomolar)  [Temperature = 298.15 K]
DOCKED: USER    
DOCKED: USER    (1) Final Intermolecular Energy     =  -13.12 kcal/mol
DOCKED: USER        vdW + Hbond + desolv Energy     =  -11.32 kcal/mol
DOCKED: USER        Electrostatic Energy            =   -1.79 kcal/mol
DOCKED: USER    (2) Final Total Internal Energy     =   -2.04 kcal/mol
DOCKED: USER    (3) Torsional Free Energy           =   +2.98 kcal/mol
DOCKED: USER    (4) Unbound System's Energy  [=(2)] =   -2.04 kcal/mol
DOCKED: USER    
DOCKED: USER    
DOCKED: USER    NEWDPF move heme_Fe_opt.pdbqt
DOCKED: USER    NEWDPF about -0.174000 -0.001000 -0.047000
DOCKED: USER    NEWDPF tran0 8.847395 13.880032 31.379818
DOCKED: USER    NEWDPF quaternion0 0.419675 0.322117 -0.829457 0.179205
DOCKED: USER    NEWDPF axisangle0 0.426581 0.327417 -0.843106 159.353090
DOCKED: USER    NEWDPF quat0 0.426581 0.327417 -0.843106 159.353090
DOCKED: USER    NEWDPF dihe0 72.70 -150.20 27.59 43.08 163.16 89.55 -67.19 121.97 -174.11 -178.85 
DOCKED: USER  keepresnum = 1 
DOCKED: USER  
DOCKED: REMARK  10 active torsions:
DOCKED: REMARK  status: ('A' for Active; 'I' for Inactive)
DOCKED: REMARK    1  A    between atoms: C_6  and  C_10 
DOCKED: REMARK    2  A    between atoms: C_10  and  C_11 
DOCKED: REMARK    3  A    between atoms: C_11  and  C_12 
DOCKED: REMARK    4  A    between atoms: C_12  and  O_14 
DOCKED: REMARK    5  A    between atoms: C_17  and  C_20 
DOCKED: REMARK    6  A    between atoms: C_24  and  C_27 
DOCKED: REMARK    7  A    between atoms: C_31  and  C_34 
DOCKED: REMARK    8  A    between atoms: C_34  and  C_35 
DOCKED: REMARK    9  A    between atoms: C_35  and  C_36 
DOCKED: REMARK   10  A    between atoms: C_36  and  O_38 
DOCKED: USER                              x       y       z     vdW  Elec       q    Type
DOCKED: USER                           _______ _______ _______ _____ _____    ______ ____
DOCKED: ROOT
DOCKED: ATOM      1  C   UNL d   1       9.573  12.594  32.805 -0.24 +0.04    +0.064 C 
DOCKED: ATOM      2  C   UNL d   1       7.689  17.163  32.875 -0.18 +0.04    +0.064 A 
DOCKED: ATOM      3  C   UNL d   1       6.033  16.475  28.420 -0.48 +0.01    +0.064 C 
DOCKED: ATOM      4  C   UNL d   1       7.939  12.089  28.291 -0.28 +0.01    +0.064 C 
DOCKED: ATOM      5  C   UNL d   1       9.269  13.975  33.206 -0.19 +0.04    +0.066 A 
DOCKED: ATOM      6  C   UNL d   1       9.688  14.565  34.387 -0.17 -0.01    -0.021 A 
DOCKED: ATOM      7  C   UNL d   1       9.162  15.833  34.407 -0.13 -0.02    -0.025 A 
DOCKED: ATOM      8  C   UNL d   1       8.440  15.967  33.237 -0.17 +0.04    +0.066 A 
DOCKED: ATOM      9  C   UNL d   1       9.362  16.855  35.484 -0.09 +0.03    +0.051 C 
DOCKED: ATOM     10  C   UNL d   1       7.032  17.340  31.728 -0.22 +0.03    +0.066 A 
DOCKED: ATOM     11  C   UNL d   1       6.228  18.450  31.458 -0.24 -0.01    -0.021 A 
DOCKED: ATOM     12  C   UNL d   1       5.725  18.267  30.185 -0.35 +0.00    +0.000 A 
DOCKED: ATOM     13  C   UNL d   1       6.247  17.039  29.743 -0.35 +0.01    +0.070 A 
DOCKED: ATOM     14  C   UNL d   1       5.899  19.595  32.394 -0.16 +0.01    +0.052 C 
DOCKED: ATOM     15  C   UNL d   1       6.491  15.269  28.008 -0.43 +0.01    +0.066 A 
DOCKED: ATOM     16  C   UNL d   1       6.350  14.809  26.705 -0.43 -0.00    -0.021 A 
DOCKED: ATOM     17  C   UNL d   1       6.896  13.543  26.666 -0.39 +0.00    +0.000 A 
DOCKED: ATOM     18  C   UNL d   1       7.354  13.258  27.950 -0.32 +0.01    +0.070 A 
DOCKED: ATOM     19  C   UNL d   1       5.705  15.520  25.545 -0.47 +0.00    +0.052 C 
DOCKED: ATOM     20  C   UNL d   1       8.489  11.777  29.616 -0.25 +0.01    +0.066 A 
DOCKED: ATOM     21  C   UNL d   1       8.914  10.510  30.039 -0.39 -0.01    -0.025 A 
DOCKED: ATOM     22  C   UNL d   1       9.387  10.679  31.323 -0.29 -0.01    -0.021 A 
DOCKED: ATOM     23  C   UNL d   1       9.227  12.035  31.634 -0.08 +0.03    +0.066 A 
DOCKED: ATOM     24  C   UNL d   1       8.876   9.202  29.283 -0.38 +0.01    +0.051 C 
DOCKED: ATOM     25  N   UNL d   1       8.515  14.838  32.504 -0.12 -0.13    -0.248 N 
DOCKED: ATOM     26  N   UNL d   1       7.037  16.469  30.686 -0.18 -0.08    -0.248 N 
DOCKED: ATOM     27  N   UNL d   1       7.145  14.335  28.765 -0.24 -0.05    -0.248 N 
DOCKED: ATOM     28  N   UNL d   1       8.638  12.691  30.605 -0.20 -0.07    -0.248 N 
DOCKED: ATOM     29 FE   UNL d   1       7.837  14.579  30.645 -0.06 +0.00    +0.000 Fe
DOCKED: ENDROOT
DOCKED: BRANCH   6  30
DOCKED: ATOM     30  C   UNL d   1      10.563  13.966  35.434 -0.20 +0.04    +0.052 C 
DOCKED: BRANCH  30  31
DOCKED: ATOM     31  C   UNL d   1       9.743  13.129  36.410 -0.09 +0.09    +0.115 C 
DOCKED: BRANCH  31  32
DOCKED: ATOM     32  C   UNL d   1      10.092  11.673  36.277 -0.16 +0.14    +0.139 C 
DOCKED: ATOM     33  O   UNL d   1       9.790  10.877  37.155 -0.04 -0.51    -0.650 OA
DOCKED: BRANCH  32  34
DOCKED: ATOM     34  O   UNL d   1      10.743  11.232  35.188 -0.27 -1.18    -0.776 OA
DOCKED: ATOM     35  H   UNL d   1      10.261  10.707  34.533 +0.07 +0.17    +0.167 HD
DOCKED: ENDBRANCH  32  34
DOCKED: ENDBRANCH  31  32
DOCKED: ENDBRANCH  30  31
DOCKED: ENDBRANCH   6  30
DOCKED: BRANCH  22  36
DOCKED: ATOM     36  C   UNL d   1       9.917   9.589  32.217 -0.34 +0.02    +0.052 C 
DOCKED: BRANCH  36  37
DOCKED: ATOM     37  C   UNL d   1       8.758   8.861  32.881 -0.35 +0.04    +0.115 C 
DOCKED: BRANCH  37  38
DOCKED: ATOM     38  C   UNL d   1       7.919   9.810  33.691 -0.40 +0.06    +0.139 C 
DOCKED: ATOM     39  O   UNL d   1       6.976  10.399  33.185 -0.08 -0.24    -0.650 OA
DOCKED: BRANCH  38  40
DOCKED: ATOM     40  O   UNL d   1       8.207  10.020  34.988 -0.44 -0.52    -0.776 OA
DOCKED: ATOM     41  H   UNL d   1       9.124   9.938  35.286 +0.07 +0.14    +0.167 HD
DOCKED: ENDBRANCH  38  40
DOCKED: ENDBRANCH  37  38
DOCKED: ENDBRANCH  36  37
DOCKED: ENDBRANCH  22  36
DOCKED: BRANCH  12  42
DOCKED: ATOM     42  C   UNL d   1       4.800  19.212  29.487 -0.35 -0.00    +0.004 C 
DOCKED: ATOM     43  C   UNL d   1       5.251  20.364  28.972 -0.38 +0.00    +0.012 C 
DOCKED: ENDBRANCH  12  42
DOCKED: BRANCH  17  44
DOCKED: ATOM     44  C   UNL d   1       6.992  12.671  25.473 -0.44 +0.00    +0.004 C 
DOCKED: ATOM     45  C   UNL d   1       8.116  12.618  24.752 -0.45 +0.00    +0.012 C 
DOCKED: ENDBRANCH  17  44
DOCKED: TORSDOF 10
DOCKED: TER
DOCKED: ENDMDL
________________________________________________________________________________


	BEGINNING GENETIC ALGORITHM DOCKING 29 of 100
Run: 29 Seed: 1792916920 986969988 [ Run 29 of 100 GA/GALS ]
Beginning LAMARCKIAN GENETIC ALGORITHM (LGA), with a maximum of 25000000 energy evaluations.

Final-Value: -18.319


	FINAL GENETIC ALGORITHM DOCKED STATE
	_______________________________________________


Detailed state:  trans 7.478 12.741 30.005 quatxyzw 0.259083 -0.673830 0.009207 0.691914 center -0.174 -0.001 -0.047 ntor 10 73.7681 -62.9271 74.0658 -132.5511 -105.7712 176.8766 77.0442 65.1162 -0.0295 134.7684
State:	  7.478  12.741  30.005   0.359 -0.933  0.013 92.436     73.77  -62.93   74.07 -132.55 -105.77  176.88   77.04   65.12   -0.03  134.77

DOCKED: MODEL       29
DOCKED: USER    Run = 29
DOCKED: USER    DPF = D:/Protein_go_brrr/autodock/final/1A3N/heme_Fe/dock.dpf
DOCKED: USER  
DOCKED: USER    Estimated Free Energy of Binding    =  -13.22 kcal/mol  [=(1)+(2)+(3)-(4)]
DOCKED: USER    Estimated Inhibition Constant, Ki   =  204.95 pM (picomolar)  [Temperature = 298.15 K]
DOCKED: USER    
DOCKED: USER    (1) Final Intermolecular Energy     =  -16.20 kcal/mol
DOCKED: USER        vdW + Hbond + desolv Energy     =  -13.40 kcal/mol
DOCKED: USER        Electrostatic Energy            =   -2.80 kcal/mol
DOCKED: USER    (2) Final Total Internal Energy     =   -2.12 kcal/mol
DOCKED: USER    (3) Torsional Free Energy           =   +2.98 kcal/mol
DOCKED: USER    (4) Unbound System's Energy  [=(2)] =   -2.12 kcal/mol
DOCKED: USER    
DOCKED: USER    
DOCKED: USER    NEWDPF move heme_Fe_opt.pdbqt
DOCKED: USER    NEWDPF about -0.174000 -0.001000 -0.047000
DOCKED: USER    NEWDPF tran0 7.478353 12.740615 30.005030
DOCKED: USER    NEWDPF quaternion0 0.259083 -0.673830 0.009207 0.691914
DOCKED: USER    NEWDPF axisangle0 0.358851 -0.933308 0.012752 92.436408
DOCKED: USER    NEWDPF quat0 0.358851 -0.933308 0.012752 92.436408
DOCKED: USER    NEWDPF dihe0 73.77 -62.93 74.07 -132.55 -105.77 176.88 77.04 65.12 -0.03 134.77 
DOCKED: USER  keepresnum = 1 
DOCKED: USER  
DOCKED: REMARK  10 active torsions:
DOCKED: REMARK  status: ('A' for Active; 'I' for Inactive)
DOCKED: REMARK    1  A    between atoms: C_6  and  C_10 
DOCKED: REMARK    2  A    between atoms: C_10  and  C_11 
DOCKED: REMARK    3  A    between atoms: C_11  and  C_12 
DOCKED: REMARK    4  A    between atoms: C_12  and  O_14 
DOCKED: REMARK    5  A    between atoms: C_17  and  C_20 
DOCKED: REMARK    6  A    between atoms: C_24  and  C_27 
DOCKED: REMARK    7  A    between atoms: C_31  and  C_34 
DOCKED: REMARK    8  A    between atoms: C_34  and  C_35 
DOCKED: REMARK    9  A    between atoms: C_35  and  C_36 
DOCKED: REMARK   10  A    between atoms: C_36  and  O_38 
DOCKED: USER                              x       y       z     vdW  Elec       q    Type
DOCKED: USER                           _______ _______ _______ _____ _____    ______ ____
DOCKED: ROOT
DOCKED: ATOM      1  C   UNL d   1       7.815  13.591  31.842 -0.28 +0.03    +0.064 C 
DOCKED: ATOM      2  C   UNL d   1       9.087   9.324  29.696 -0.37 +0.02    +0.064 A 
DOCKED: ATOM      3  C   UNL d   1       7.836  11.170  25.442 -0.39 +0.00    +0.064 C 
DOCKED: ATOM      4  C   UNL d   1       6.501  15.271  27.512 -0.49 +0.01    +0.064 C 
DOCKED: ATOM      5  C   UNL d   1       8.210  12.189  31.643 -0.12 +0.03    +0.066 A 
DOCKED: ATOM      6  C   UNL d   1       8.531  11.306  32.661 -0.30 -0.01    -0.021 A 
DOCKED: ATOM      7  C   UNL d   1       8.888  10.123  32.064 -0.37 -0.01    -0.025 A 
DOCKED: ATOM      8  C   UNL d   1       8.771  10.329  30.703 -0.35 +0.02    +0.066 A 
DOCKED: ATOM      9  C   UNL d   1       9.298   8.866  32.769 -0.47 +0.02    +0.051 C 
DOCKED: ATOM     10  C   UNL d   1       8.928   9.478  28.380 -0.39 +0.01    +0.066 A 
DOCKED: ATOM     11  C   UNL d   1       9.347   8.540  27.434 -0.40 -0.00    -0.021 A 
DOCKED: ATOM     12  C   UNL d   1       9.013   9.056  26.198 -0.43 +0.00    +0.000 A 
DOCKED: ATOM     13  C   UNL d   1       8.409  10.299  26.456 -0.35 +0.01    +0.070 A 
DOCKED: ATOM     14  C   UNL d   1      10.091   7.245  27.690 -0.25 +0.01    +0.052 C 
DOCKED: ATOM     15  C   UNL d   1       7.300  12.391  25.681 -0.35 +0.00    +0.066 A 
DOCKED: ATOM     16  C   UNL d   1       6.674  13.149  24.700 -0.37 -0.00    -0.021 A 
DOCKED: ATOM     17  C   UNL d   1       6.291  14.334  25.294 -0.42 +0.00    +0.000 A 
DOCKED: ATOM     18  C   UNL d   1       6.697  14.272  26.625 -0.36 +0.01    +0.070 A 
DOCKED: ATOM     19  C   UNL d   1       6.465  12.788  23.254 -0.40 +0.00    +0.052 C 
DOCKED: ATOM     20  C   UNL d   1       6.859  15.217  28.935 -0.38 +0.01    +0.066 A 
DOCKED: ATOM     21  C   UNL d   1       6.846  16.308  29.815 -0.34 -0.01    -0.025 A 
DOCKED: ATOM     22  C   UNL d   1       7.211  15.804  31.046 -0.30 -0.01    -0.021 A 
DOCKED: ATOM     23  C   UNL d   1       7.438  14.434  30.868 -0.28 +0.02    +0.066 A 
DOCKED: ATOM     24  C   UNL d   1       6.513  17.753  29.523 -0.19 +0.01    +0.051 C 
DOCKED: ATOM     25  N   UNL d   1       8.349  11.584  30.451 -0.02 -0.07    -0.248 N 
DOCKED: ATOM     26  N   UNL d   1       8.365  10.561  27.786 -0.24 -0.03    -0.248 N 
DOCKED: ATOM     27  N   UNL d   1       7.279  13.060  26.875 -0.23 -0.02    -0.248 N 
DOCKED: ATOM     28  N   UNL d   1       7.265  14.090  29.568 -0.20 -0.06    -0.248 N 
DOCKED: ATOM     29 FE   UNL d   1       7.814  12.327  28.676 -0.08 +0.00    +0.000 Fe
DOCKED: ENDROOT
DOCKED: BRANCH   6  30
DOCKED: ATOM     30  C   UNL d   1       8.482  11.564  34.128 -0.25 +0.03    +0.052 C 
DOCKED: BRANCH  30  31
DOCKED: ATOM     31  C   UNL d   1       7.106  11.225  34.690 -0.29 +0.07    +0.115 C 
DOCKED: BRANCH  31  32
DOCKED: ATOM     32  C   UNL d   1       6.312  12.479  34.931 -0.23 +0.16    +0.139 C 
DOCKED: ATOM     33  O   UNL d   1       6.134  12.895  36.067 +0.01 -1.04    -0.650 OA
DOCKED: BRANCH  32  34
DOCKED: ATOM     34  O   UNL d   1       5.790  13.157  33.895 -0.41 -1.13    -0.776 OA
DOCKED: ATOM     35  H   UNL d   1       6.196  13.993  33.628 +0.05 +0.25    +0.167 HD
DOCKED: ENDBRANCH  32  34
DOCKED: ENDBRANCH  31  32
DOCKED: ENDBRANCH  30  31
DOCKED: ENDBRANCH   6  30
DOCKED: BRANCH  22  36
DOCKED: ATOM     36  C   UNL d   1       7.380  16.605  32.310 -0.26 +0.03    +0.052 C 
DOCKED: BRANCH  36  37
DOCKED: ATOM     37  C   UNL d   1       8.741  16.313  32.925 -0.12 +0.06    +0.115 C 
DOCKED: BRANCH  37  38
DOCKED: ATOM     38  C   UNL d   1       8.595  15.649  34.265 -0.14 +0.10    +0.139 C 
DOCKED: ATOM     39  O   UNL d   1       9.578  15.282  34.892 +0.01 -0.42    -0.650 OA
DOCKED: BRANCH  38  40
DOCKED: ATOM     40  O   UNL d   1       7.371  15.449  34.785 -0.26 -1.23    -0.776 OA
DOCKED: ATOM     41  H   UNL d   1       7.066  14.543  34.937 +0.03 +0.32    +0.167 HD
DOCKED: ENDBRANCH  38  40
DOCKED: ENDBRANCH  37  38
DOCKED: ENDBRANCH  36  37
DOCKED: ENDBRANCH  22  36
DOCKED: BRANCH  12  42
DOCKED: ATOM     42  C   UNL d   1       9.286   8.388  24.888 -0.59 +0.00    +0.004 C 
DOCKED: ATOM     43  C   UNL d   1       8.290   8.100  24.040 -0.64 +0.00    +0.012 C 
DOCKED: ENDBRANCH  12  42
DOCKED: BRANCH  17  44
DOCKED: ATOM     44  C   UNL d   1       5.565  15.444  24.636 -0.57 +0.00    +0.004 C 
DOCKED: ATOM     45  C   UNL d   1       6.208  16.308  23.844 -0.59 +0.00    +0.012 C 
DOCKED: ENDBRANCH  17  44
DOCKED: TORSDOF 10
DOCKED: TER
DOCKED: ENDMDL
________________________________________________________________________________


	BEGINNING GENETIC ALGORITHM DOCKING 30 of 100
Run: 30 Seed: 575972485 1440675025 [ Run 30 of 100 GA/GALS ]
Beginning LAMARCKIAN GENETIC ALGORITHM (LGA), with a maximum of 25000000 energy evaluations.

Final-Value: -17.313


	FINAL GENETIC ALGORITHM DOCKED STATE
	_______________________________________________


Detailed state:  trans 7.324 13.138 30.389 quatxyzw 0.282985 -0.662376 0.023333 0.693277 center -0.174 -0.001 -0.047 ntor 10 140.0723 54.5982 68.2920 -127.1236 151.9599 171.8061 100.9611 61.2546 -160.9855 143.1212
State:	  7.324  13.138  30.389   0.393 -0.919  0.032 92.220    140.07   54.60   68.29 -127.12  151.96  171.81  100.96   61.25 -160.99  143.12

DOCKED: MODEL       30
DOCKED: USER    Run = 30
DOCKED: USER    DPF = D:/Protein_go_brrr/autodock/final/1A3N/heme_Fe/dock.dpf
DOCKED: USER  
DOCKED: USER    Estimated Free Energy of Binding    =  -13.67 kcal/mol  [=(1)+(2)+(3)-(4)]
DOCKED: USER    Estimated Inhibition Constant, Ki   =   95.75 pM (picomolar)  [Temperature = 298.15 K]
DOCKED: USER    
DOCKED: USER    (1) Final Intermolecular Energy     =  -16.65 kcal/mol
DOCKED: USER        vdW + Hbond + desolv Energy     =  -13.64 kcal/mol
DOCKED: USER        Electrostatic Energy            =   -3.01 kcal/mol
DOCKED: USER    (2) Final Total Internal Energy     =   -0.66 kcal/mol
DOCKED: USER    (3) Torsional Free Energy           =   +2.98 kcal/mol
DOCKED: USER    (4) Unbound System's Energy  [=(2)] =   -0.66 kcal/mol
DOCKED: USER    
DOCKED: USER    
DOCKED: USER    NEWDPF move heme_Fe_opt.pdbqt
DOCKED: USER    NEWDPF about -0.174000 -0.001000 -0.047000
DOCKED: USER    NEWDPF tran0 7.324432 13.138018 30.389458
DOCKED: USER    NEWDPF quaternion0 0.282985 -0.662376 0.023333 0.693277
DOCKED: USER    NEWDPF axisangle0 0.392668 -0.919110 0.032376 92.219902
DOCKED: USER    NEWDPF quat0 0.392668 -0.919110 0.032376 92.219902
DOCKED: USER    NEWDPF dihe0 140.07 54.60 68.29 -127.12 151.96 171.81 100.96 61.25 -160.99 143.12 
DOCKED: USER  keepresnum = 1 
DOCKED: USER  
DOCKED: REMARK  10 active torsions:
DOCKED: REMARK  status: ('A' for Active; 'I' for Inactive)
DOCKED: REMARK    1  A    between atoms: C_6  and  C_10 
DOCKED: REMARK    2  A    between atoms: C_10  and  C_11 
DOCKED: REMARK    3  A    between atoms: C_11  and  C_12 
DOCKED: REMARK    4  A    between atoms: C_12  and  O_14 
DOCKED: REMARK    5  A    between atoms: C_17  and  C_20 
DOCKED: REMARK    6  A    between atoms: C_24  and  C_27 
DOCKED: REMARK    7  A    between atoms: C_31  and  C_34 
DOCKED: REMARK    8  A    between atoms: C_34  and  C_35 
DOCKED: REMARK    9  A    between atoms: C_35  and  C_36 
DOCKED: REMARK   10  A    between atoms: C_36  and  O_38 
DOCKED: USER                              x       y       z     vdW  Elec       q    Type
DOCKED: USER                           _______ _______ _______ _____ _____    ______ ____
DOCKED: ROOT
DOCKED: ATOM      1  C   UNL d   1       7.600  14.088  32.188 -0.29 +0.03    +0.064 C 
DOCKED: ATOM      2  C   UNL d   1       9.001   9.741  30.297 -0.39 +0.02    +0.064 A 
DOCKED: ATOM      3  C   UNL d   1       7.824  11.343  25.924 -0.39 +0.00    +0.064 C 
DOCKED: ATOM      4  C   UNL d   1       6.364  15.518  27.746 -0.50 +0.01    +0.064 C 
DOCKED: ATOM      5  C   UNL d   1       8.025  12.686  32.071 -0.20 +0.03    +0.066 A 
DOCKED: ATOM      6  C   UNL d   1       8.336  11.862  33.141 -0.26 -0.01    -0.021 A 
DOCKED: ATOM      7  C   UNL d   1       8.729  10.657  32.614 -0.33 -0.01    -0.025 A 
DOCKED: ATOM      8  C   UNL d   1       8.642  10.791  31.242 -0.32 +0.02    +0.066 A 
DOCKED: ATOM      9  C   UNL d   1       9.143   9.446  33.393 -0.42 +0.02    +0.051 C 
DOCKED: ATOM     10  C   UNL d   1       8.873   9.825  28.971 -0.39 +0.01    +0.066 A 
DOCKED: ATOM     11  C   UNL d   1       9.332   8.847  28.085 -0.42 -0.00    -0.021 A 
DOCKED: ATOM     12  C   UNL d   1       9.020   9.293  26.816 -0.43 +0.00    +0.000 A 
DOCKED: ATOM     13  C   UNL d   1       8.387  10.536  26.996 -0.34 +0.01    +0.070 A 
DOCKED: ATOM     14  C   UNL d   1      10.093   7.582  28.426 -0.32 +0.01    +0.052 C 
DOCKED: ATOM     15  C   UNL d   1       7.261  12.563  26.086 -0.35 +0.00    +0.066 A 
DOCKED: ATOM     16  C   UNL d   1       6.646  13.258  25.052 -0.38 -0.00    -0.021 A 
DOCKED: ATOM     17  C   UNL d   1       6.227  14.464  25.575 -0.41 +0.00    +0.000 A 
DOCKED: ATOM     18  C   UNL d   1       6.601  14.478  26.917 -0.36 +0.01    +0.070 A 
DOCKED: ATOM     19  C   UNL d   1       6.479  12.819  23.622 -0.39 +0.00    +0.052 C 
DOCKED: ATOM     20  C   UNL d   1       6.688  15.544  29.178 -0.39 +0.01    +0.066 A 
DOCKED: ATOM     21  C   UNL d   1       6.633  16.678  30.000 -0.33 -0.01    -0.025 A 
DOCKED: ATOM     22  C   UNL d   1       6.977  16.245  31.264 -0.29 -0.01    -0.021 A 
DOCKED: ATOM     23  C   UNL d   1       7.232  14.872  31.162 -0.29 +0.03    +0.066 A 
DOCKED: ATOM     24  C   UNL d   1       6.281  18.099  29.625 -0.35 +0.01    +0.051 C 
DOCKED: ATOM     25  N   UNL d   1       8.204  12.023  30.915 +0.05 -0.08    -0.248 N 
DOCKED: ATOM     26  N   UNL d   1       8.305  10.864  28.308 -0.24 -0.04    -0.248 N 
DOCKED: ATOM     27  N   UNL d   1       7.197  13.293  27.243 -0.23 -0.02    -0.248 N 
DOCKED: ATOM     28  N   UNL d   1       7.098  14.459  29.878 -0.20 -0.06    -0.248 N 
DOCKED: ATOM     29 FE   UNL d   1       7.701  12.663  29.092 -0.08 +0.00    +0.000 Fe
DOCKED: ENDROOT
DOCKED: BRANCH   6  30
DOCKED: ATOM     30  C   UNL d   1       8.246  12.195  34.591 -0.20 +0.04    +0.052 C 
DOCKED: BRANCH  30  31
DOCKED: ATOM     31  C   UNL d   1       9.343  13.175  34.990 -0.14 +0.09    +0.115 C 
DOCKED: BRANCH  31  32
DOCKED: ATOM     32  C   UNL d   1      10.651  12.456  35.170 -0.14 +0.18    +0.139 C 
DOCKED: ATOM     33  O   UNL d   1      11.712  13.036  34.984 -0.44 -1.25    -0.650 OA
DOCKED: BRANCH  32  34
DOCKED: ATOM     34  O   UNL d   1      10.666  11.164  35.538 -0.25 -1.11    -0.776 OA
DOCKED: ATOM     35  H   UNL d   1      10.032  10.858  36.202 +0.05 +0.16    +0.167 HD
DOCKED: ENDBRANCH  32  34
DOCKED: ENDBRANCH  31  32
DOCKED: ENDBRANCH  30  31
DOCKED: ENDBRANCH   6  30
DOCKED: BRANCH  22  36
DOCKED: ATOM     36  C   UNL d   1       7.099  17.113  32.488 -0.22 +0.03    +0.052 C 
DOCKED: BRANCH  36  37
DOCKED: ATOM     37  C   UNL d   1       8.518  17.036  33.032 -0.16 +0.05    +0.115 C 
DOCKED: BRANCH  37  38
DOCKED: ATOM     38  C   UNL d   1       8.529  16.501  34.436 -0.13 +0.10    +0.139 C 
DOCKED: ATOM     39  O   UNL d   1       9.582  16.223  34.991 +0.01 -0.37    -0.650 OA
DOCKED: BRANCH  38  40
DOCKED: ATOM     40  O   UNL d   1       7.370  16.319  35.093 -0.54 -1.16    -0.776 OA
DOCKED: ATOM     41  H   UNL d   1       7.251  16.731  35.960 +0.01 +0.24    +0.167 HD
DOCKED: ENDBRANCH  38  40
DOCKED: ENDBRANCH  37  38
DOCKED: ENDBRANCH  36  37
DOCKED: ENDBRANCH  22  36
DOCKED: BRANCH  12  42
DOCKED: ATOM     42  C   UNL d   1       9.337   8.563  25.550 -0.52 +0.00    +0.004 C 
DOCKED: ATOM     43  C   UNL d   1       8.362   8.113  24.751 -0.57 +0.00    +0.012 C 
DOCKED: ENDBRANCH  12  42
DOCKED: BRANCH  17  44
DOCKED: ATOM     44  C   UNL d   1       5.498  15.525  24.843 -0.54 +0.00    +0.004 C 
DOCKED: ATOM     45  C   UNL d   1       6.124  16.289  23.942 -0.59 +0.00    +0.012 C 
DOCKED: ENDBRANCH  17  44
DOCKED: TORSDOF 10
DOCKED: TER
DOCKED: ENDMDL
________________________________________________________________________________


	BEGINNING GENETIC ALGORITHM DOCKING 31 of 100
Run: 31 Seed: 1205176144 1010610079 [ Run 31 of 100 GA/GALS ]
Beginning LAMARCKIAN GENETIC ALGORITHM (LGA), with a maximum of 25000000 energy evaluations.

Final-Value: -11.360


	FINAL GENETIC ALGORITHM DOCKED STATE
	_______________________________________________


Detailed state:  trans 17.369 -15.993 11.203 quatxyzw -0.691999 0.100427 0.600040 -0.388593 center -0.174 -0.001 -0.047 ntor 10 -56.1729 -94.0913 19.6600 -118.0300 0.8191 -149.4755 -59.3497 17.3036 -162.0770 151.6799
State:	 17.369 -15.993  11.203  -0.751  0.109  0.651 -134.266    -56.17  -94.09   19.66 -118.03    0.82 -149.48  -59.35   17.30 -162.08  151.68

DOCKED: MODEL       31
DOCKED: USER    Run = 31
DOCKED: USER    DPF = D:/Protein_go_brrr/autodock/final/1A3N/heme_Fe/dock.dpf
DOCKED: USER  
DOCKED: USER    Estimated Free Energy of Binding    =   -5.97 kcal/mol  [=(1)+(2)+(3)-(4)]
DOCKED: USER    Estimated Inhibition Constant, Ki   =   41.74 uM (micromolar)  [Temperature = 298.15 K]
DOCKED: USER    
DOCKED: USER    (1) Final Intermolecular Energy     =   -8.96 kcal/mol
DOCKED: USER        vdW + Hbond + desolv Energy     =   -6.53 kcal/mol
DOCKED: USER        Electrostatic Energy            =   -2.43 kcal/mol
DOCKED: USER    (2) Final Total Internal Energy     =   -2.40 kcal/mol
DOCKED: USER    (3) Torsional Free Energy           =   +2.98 kcal/mol
DOCKED: USER    (4) Unbound System's Energy  [=(2)] =   -2.40 kcal/mol
DOCKED: USER    
DOCKED: USER    
DOCKED: USER    NEWDPF move heme_Fe_opt.pdbqt
DOCKED: USER    NEWDPF about -0.174000 -0.001000 -0.047000
DOCKED: USER    NEWDPF tran0 17.368884 -15.992732 11.202732
DOCKED: USER    NEWDPF quaternion0 -0.691999 0.100427 0.600040 -0.388593
DOCKED: USER    NEWDPF axisangle0 -0.751022 0.108992 0.651219 -134.266044
DOCKED: USER    NEWDPF quat0 -0.751022 0.108992 0.651219 -134.266044
DOCKED: USER    NEWDPF dihe0 -56.17 -94.09 19.66 -118.03 0.82 -149.48 -59.35 17.30 -162.08 151.68 
DOCKED: USER  keepresnum = 1 
DOCKED: USER  
DOCKED: REMARK  10 active torsions:
DOCKED: REMARK  status: ('A' for Active; 'I' for Inactive)
DOCKED: REMARK    1  A    between atoms: C_6  and  C_10 
DOCKED: REMARK    2  A    between atoms: C_10  and  C_11 
DOCKED: REMARK    3  A    between atoms: C_11  and  C_12 
DOCKED: REMARK    4  A    between atoms: C_12  and  O_14 
DOCKED: REMARK    5  A    between atoms: C_17  and  C_20 
DOCKED: REMARK    6  A    between atoms: C_24  and  C_27 
DOCKED: REMARK    7  A    between atoms: C_31  and  C_34 
DOCKED: REMARK    8  A    between atoms: C_34  and  C_35 
DOCKED: REMARK    9  A    between atoms: C_35  and  C_36 
DOCKED: REMARK   10  A    between atoms: C_36  and  O_38 
DOCKED: USER                              x       y       z     vdW  Elec       q    Type
DOCKED: USER                           _______ _______ _______ _____ _____    ______ ____
DOCKED: ROOT
DOCKED: ATOM      1  C   UNL d   1      16.490 -16.251  13.039 -0.06 +0.02    +0.064 C 
DOCKED: ATOM      2  C   UNL d   1      19.597 -12.929  11.104 -0.19 +0.01    +0.064 A 
DOCKED: ATOM      3  C   UNL d   1      18.507 -14.565   6.722 -0.16 +0.01    +0.064 C 
DOCKED: ATOM      4  C   UNL d   1      15.575 -17.857   8.580 -0.19 +0.02    +0.064 C 
DOCKED: ATOM      5  C   UNL d   1      17.529 -15.220  12.906 -0.07 +0.02    +0.066 A 
DOCKED: ATOM      6  C   UNL d   1      18.167 -14.599  13.967 -0.16 -0.01    -0.021 A 
DOCKED: ATOM      7  C   UNL d   1      19.027 -13.674  13.429 -0.25 -0.00    -0.025 A 
DOCKED: ATOM      8  C   UNL d   1      18.881 -13.767  12.058 -0.15 +0.01    +0.066 A 
DOCKED: ATOM      9  C   UNL d   1      19.946 -12.773  14.195 -0.04 +0.00    +0.051 C 
DOCKED: ATOM     10  C   UNL d   1      19.517 -13.037   9.777 -0.16 +0.01    +0.066 A 
DOCKED: ATOM     11  C   UNL d   1      20.127 -12.147   8.889 -0.17 -0.00    -0.021 A 
DOCKED: ATOM     12  C   UNL d   1      19.813 -12.586   7.619 -0.16 +0.00    +0.000 A 
DOCKED: ATOM     13  C   UNL d   1      19.014 -13.729   7.799 -0.13 +0.01    +0.070 A 
DOCKED: ATOM     14  C   UNL d   1      20.912 -10.898   9.235 -0.29 +0.00    +0.052 C 
DOCKED: ATOM     15  C   UNL d   1      17.695 -15.635   6.888 -0.17 +0.01    +0.066 A 
DOCKED: ATOM     16  C   UNL d   1      17.313 -16.467   5.843 -0.22 -0.00    -0.021 A 
DOCKED: ATOM     17  C   UNL d   1      16.464 -17.415   6.376 -0.28 +0.00    +0.000 A 
DOCKED: ATOM     18  C   UNL d   1      16.345 -17.136   7.735 -0.26 +0.01    +0.070 A 
DOCKED: ATOM     19  C   UNL d   1      17.708 -16.361   4.394 -0.21 -0.00    +0.052 C 
DOCKED: ATOM     20  C   UNL d   1      15.473 -17.631  10.026 -0.20 +0.02    +0.066 A 
DOCKED: ATOM     21  C   UNL d   1      14.535 -18.234  10.876 -0.16 -0.01    -0.025 A 
DOCKED: ATOM     22  C   UNL d   1      14.822 -17.772  12.144 -0.07 -0.01    -0.021 A 
DOCKED: ATOM     23  C   UNL d   1      15.914 -16.905  12.018 -0.07 +0.02    +0.066 A 
DOCKED: ATOM     24  C   UNL d   1      13.420 -19.191  10.523 -0.17 +0.03    +0.051 C 
DOCKED: ATOM     25  N   UNL d   1      17.975 -14.715  11.743 -0.05 -0.04    -0.248 N 
DOCKED: ATOM     26  N   UNL d   1      18.826 -13.999   9.114 -0.09 -0.05    -0.248 N 
DOCKED: ATOM     27  N   UNL d   1      17.135 -16.069   8.059 -0.14 -0.05    -0.248 N 
DOCKED: ATOM     28  N   UNL d   1      16.278 -16.788  10.718 -0.11 -0.06    -0.248 N 
DOCKED: ATOM     29 FE   UNL d   1      17.551 -15.395   9.915 -0.04 +0.00    +0.000 Fe
DOCKED: ENDROOT
DOCKED: BRANCH   6  30
DOCKED: ATOM     30  C   UNL d   1      17.986 -14.883  15.419 -0.23 +0.02    +0.052 C 
DOCKED: BRANCH  30  31
DOCKED: ATOM     31  C   UNL d   1      16.642 -14.357  15.909 -0.21 +0.06    +0.115 C 
DOCKED: BRANCH  31  32
DOCKED: ATOM     32  C   UNL d   1      15.810 -15.477  16.468 -0.16 +0.09    +0.139 C 
DOCKED: ATOM     33  O   UNL d   1      16.243 -16.621  16.497 +0.05 -0.38    -0.650 OA
DOCKED: BRANCH  32  34
DOCKED: ATOM     34  O   UNL d   1      14.577 -15.231  16.943 +0.07 -0.78    -0.776 OA
DOCKED: ATOM     35  H   UNL d   1      13.827 -15.719  16.576 +0.03 +0.22    +0.167 HD
DOCKED: ENDBRANCH  32  34
DOCKED: ENDBRANCH  31  32
DOCKED: ENDBRANCH  30  31
DOCKED: ENDBRANCH   6  30
DOCKED: BRANCH  22  36
DOCKED: ATOM     36  C   UNL d   1      14.057 -18.108  13.397 -0.04 +0.03    +0.052 C 
DOCKED: BRANCH  36  37
DOCKED: ATOM     37  C   UNL d   1      13.321 -16.873  13.896 -0.04 +0.08    +0.115 C 
DOCKED: BRANCH  37  38
DOCKED: ATOM     38  C   UNL d   1      12.884 -17.046  15.323 -0.05 +0.17    +0.139 C 
DOCKED: ATOM     39  O   UNL d   1      11.874 -16.499  15.739 -0.44 -1.04    -0.650 OA
DOCKED: BRANCH  38  40
DOCKED: ATOM     40  O   UNL d   1      13.611 -17.809  16.160 +0.03 -1.10    -0.776 OA
DOCKED: ATOM     41  H   UNL d   1      14.361 -17.412  16.626 +0.03 +0.22    +0.167 HD
DOCKED: ENDBRANCH  38  40
DOCKED: ENDBRANCH  37  38
DOCKED: ENDBRANCH  36  37
DOCKED: ENDBRANCH  22  36
DOCKED: BRANCH  12  42
DOCKED: ATOM     42  C   UNL d   1      20.250 -11.923   6.351 -0.25 +0.00    +0.004 C 
DOCKED: ATOM     43  C   UNL d   1      21.540 -11.908   5.990 -0.33 +0.00    +0.012 C 
DOCKED: ENDBRANCH  12  42
DOCKED: BRANCH  17  44
DOCKED: ATOM     44  C   UNL d   1      15.825 -18.527   5.636 -0.21 +0.00    +0.004 C 
DOCKED: ATOM     45  C   UNL d   1      14.942 -18.284   4.662 -0.36 +0.00    +0.012 C 
DOCKED: ENDBRANCH  17  44
DOCKED: TORSDOF 10
DOCKED: TER
DOCKED: ENDMDL
________________________________________________________________________________


	BEGINNING GENETIC ALGORITHM DOCKING 32 of 100
Run: 32 Seed: 1241499827 1562291686 [ Run 32 of 100 GA/GALS ]
Beginning LAMARCKIAN GENETIC ALGORITHM (LGA), with a maximum of 25000000 energy evaluations.

Final-Value: -18.221


	FINAL GENETIC ALGORITHM DOCKED STATE
	_______________________________________________


Detailed state:  trans 2.868 -6.472 -4.433 quatxyzw 0.257756 0.712947 0.097011 0.644870 center -0.174 -0.001 -0.047 ntor 10 34.5244 -55.2876 -104.9311 -143.6445 -169.4683 147.5270 -68.6540 51.6098 -171.7514 -177.5354
State:	  2.868  -6.472  -4.433   0.337  0.933  0.127 99.688     34.52  -55.29 -104.93 -143.64 -169.47  147.53  -68.65   51.61 -171.75 -177.54

DOCKED: MODEL       32
DOCKED: USER    Run = 32
DOCKED: USER    DPF = D:/Protein_go_brrr/autodock/final/1A3N/heme_Fe/dock.dpf
DOCKED: USER  
DOCKED: USER    Estimated Free Energy of Binding    =  -13.40 kcal/mol  [=(1)+(2)+(3)-(4)]
DOCKED: USER    Estimated Inhibition Constant, Ki   =  149.81 pM (picomolar)  [Temperature = 298.15 K]
DOCKED: USER    
DOCKED: USER    (1) Final Intermolecular Energy     =  -16.39 kcal/mol
DOCKED: USER        vdW + Hbond + desolv Energy     =  -14.27 kcal/mol
DOCKED: USER        Electrostatic Energy            =   -2.12 kcal/mol
DOCKED: USER    (2) Final Total Internal Energy     =   -1.84 kcal/mol
DOCKED: USER    (3) Torsional Free Energy           =   +2.98 kcal/mol
DOCKED: USER    (4) Unbound System's Energy  [=(2)] =   -1.84 kcal/mol
DOCKED: USER    
DOCKED: USER    
DOCKED: USER    NEWDPF move heme_Fe_opt.pdbqt
DOCKED: USER    NEWDPF about -0.174000 -0.001000 -0.047000
DOCKED: USER    NEWDPF tran0 2.868236 -6.472102 -4.433394
DOCKED: USER    NEWDPF quaternion0 0.257756 0.712947 0.097011 0.644870
DOCKED: USER    NEWDPF axisangle0 0.337247 0.932820 0.126929 99.688125
DOCKED: USER    NEWDPF quat0 0.337247 0.932820 0.126929 99.688125
DOCKED: USER    NEWDPF dihe0 34.52 -55.29 -104.93 -143.64 -169.47 147.53 -68.65 51.61 -171.75 -177.54 
DOCKED: USER  keepresnum = 1 
DOCKED: USER  
DOCKED: REMARK  10 active torsions:
DOCKED: REMARK  status: ('A' for Active; 'I' for Inactive)
DOCKED: REMARK    1  A    between atoms: C_6  and  C_10 
DOCKED: REMARK    2  A    between atoms: C_10  and  C_11 
DOCKED: REMARK    3  A    between atoms: C_11  and  C_12 
DOCKED: REMARK    4  A    between atoms: C_12  and  O_14 
DOCKED: REMARK    5  A    between atoms: C_17  and  C_20 
DOCKED: REMARK    6  A    between atoms: C_24  and  C_27 
DOCKED: REMARK    7  A    between atoms: C_31  and  C_34 
DOCKED: REMARK    8  A    between atoms: C_34  and  C_35 
DOCKED: REMARK    9  A    between atoms: C_35  and  C_36 
DOCKED: REMARK   10  A    between atoms: C_36  and  O_38 
DOCKED: USER                              x       y       z     vdW  Elec       q    Type
DOCKED: USER                           _______ _______ _______ _____ _____    ______ ____
DOCKED: ROOT
DOCKED: ATOM      1  C   UNL d   1       2.447  -6.752  -6.422 -0.31 +0.02    +0.064 C 
DOCKED: ATOM      2  C   UNL d   1       0.848  -8.779  -2.207 -0.38 +0.00    +0.064 A 
DOCKED: ATOM      3  C   UNL d   1       2.815  -5.127   0.214 -0.41 +0.00    +0.064 C 
DOCKED: ATOM      4  C   UNL d   1       4.462  -3.203  -3.844 -0.49 +0.01    +0.064 C 
DOCKED: ATOM      5  C   UNL d   1       1.886  -7.704  -5.454 -0.32 +0.01    +0.066 A 
DOCKED: ATOM      6  C   UNL d   1       1.333  -8.932  -5.781 -0.31 -0.00    -0.021 A 
DOCKED: ATOM      7  C   UNL d   1       0.886  -9.492  -4.610 -0.33 -0.00    -0.025 A 
DOCKED: ATOM      8  C   UNL d   1       1.184  -8.584  -3.612 -0.30 +0.01    +0.066 A 
DOCKED: ATOM      9  C   UNL d   1       0.230 -10.831  -4.466 -0.23 +0.01    +0.051 C 
DOCKED: ATOM     10  C   UNL d   1       1.175  -7.946  -1.217 -0.37 +0.00    +0.066 A 
DOCKED: ATOM     11  C   UNL d   1       0.740  -8.101   0.101 -0.44 -0.00    -0.021 A 
DOCKED: ATOM     12  C   UNL d   1       1.280  -7.051   0.817 -0.37 +0.00    +0.000 A 
DOCKED: ATOM     13  C   UNL d   1       2.017  -6.297  -0.113 -0.37 +0.00    +0.070 A 
DOCKED: ATOM     14  C   UNL d   1      -0.201  -9.160   0.640 -0.58 -0.00    +0.052 C 
DOCKED: ATOM     15  C   UNL d   1       3.484  -4.368  -0.685 -0.37 +0.00    +0.066 A 
DOCKED: ATOM     16  C   UNL d   1       4.316  -3.317  -0.322 -0.48 -0.00    -0.021 A 
DOCKED: ATOM     17  C   UNL d   1       4.790  -2.758  -1.491 -0.49 +0.00    +0.000 A 
DOCKED: ATOM     18  C   UNL d   1       4.231  -3.481  -2.543 -0.39 +0.01    +0.070 A 
DOCKED: ATOM     19  C   UNL d   1       4.636  -2.837   1.069 -0.47 +0.00    +0.052 C 
DOCKED: ATOM     20  C   UNL d   1       3.941  -3.979  -4.976 -0.41 +0.01    +0.066 A 
DOCKED: ATOM     21  C   UNL d   1       4.005  -3.591  -6.322 -0.43 -0.00    -0.025 A 
DOCKED: ATOM     22  C   UNL d   1       3.437  -4.623  -7.040 -0.36 -0.00    -0.021 A 
DOCKED: ATOM     23  C   UNL d   1       3.044  -5.591  -6.109 -0.29 +0.02    +0.066 A 
DOCKED: ATOM     24  C   UNL d   1       4.566  -2.317  -6.911 -0.20 -0.00    +0.051 C 
DOCKED: ATOM     25  N   UNL d   1       1.801  -7.502  -4.127 -0.22 -0.03    -0.248 N 
DOCKED: ATOM     26  N   UNL d   1       1.946  -6.837  -1.355 -0.23 +0.00    -0.248 N 
DOCKED: ATOM     27  N   UNL d   1       3.463  -4.498  -2.048 -0.23 -0.01    -0.248 N 
DOCKED: ATOM     28  N   UNL d   1       3.314  -5.173  -4.848 -0.24 -0.05    -0.248 N 
DOCKED: ATOM     29 FE   UNL d   1       2.631  -6.004  -3.102 -0.08 +0.00    +0.000 Fe
DOCKED: ENDROOT
DOCKED: BRANCH   6  30
DOCKED: ATOM     30  C   UNL d   1       1.252  -9.552  -7.133 -0.24 +0.01    +0.052 C 
DOCKED: BRANCH  30  31
DOCKED: ATOM     31  C   UNL d   1       0.054  -9.009  -7.905 -0.17 +0.06    +0.115 C 
DOCKED: BRANCH  31  32
DOCKED: ATOM     32  C   UNL d   1       0.513  -8.159  -9.058 -0.17 +0.10    +0.139 C 
DOCKED: ATOM     33  O   UNL d   1      -0.286  -7.478  -9.686 -0.36 -0.90    -0.650 OA
DOCKED: BRANCH  32  34
DOCKED: ATOM     34  O   UNL d   1       1.810  -8.141  -9.409 +0.05 -0.30    -0.776 OA
DOCKED: ATOM     35  H   UNL d   1       2.194  -7.318  -9.743 +0.04 +0.06    +0.167 HD
DOCKED: ENDBRANCH  32  34
DOCKED: ENDBRANCH  31  32
DOCKED: ENDBRANCH  30  31
DOCKED: ENDBRANCH   6  30
DOCKED: BRANCH  22  36
DOCKED: ATOM     36  C   UNL d   1       3.239  -4.651  -8.533 -0.30 +0.01    +0.052 C 
DOCKED: BRANCH  36  37
DOCKED: ATOM     37  C   UNL d   1       1.998  -3.851  -8.901 -0.34 +0.04    +0.115 C 
DOCKED: BRANCH  37  38
DOCKED: ATOM     38  C   UNL d   1       1.087  -4.649  -9.791 -0.26 +0.10    +0.139 C 
DOCKED: ATOM     39  O   UNL d   1      -0.125  -4.505  -9.734 -0.13 -0.98    -0.650 OA
DOCKED: BRANCH  38  40
DOCKED: ATOM     40  O   UNL d   1       1.605  -5.536 -10.659 +0.04 -0.42    -0.776 OA
DOCKED: ATOM     41  H   UNL d   1       1.307  -6.456 -10.625 +0.04 +0.10    +0.167 HD
DOCKED: ENDBRANCH  38  40
DOCKED: ENDBRANCH  37  38
DOCKED: ENDBRANCH  36  37
DOCKED: ENDBRANCH  22  36
DOCKED: BRANCH  12  42
DOCKED: ATOM     42  C   UNL d   1       1.066  -6.811   2.278 -0.51 +0.00    +0.004 C 
DOCKED: ATOM     43  C   UNL d   1      -0.167  -6.674   2.781 -0.55 +0.00    +0.012 C 
DOCKED: ENDBRANCH  12  42
DOCKED: BRANCH  17  44
DOCKED: ATOM     44  C   UNL d   1       5.731  -1.621  -1.595 -0.63 +0.00    +0.004 C 
DOCKED: ATOM     45  C   UNL d   1       5.282  -0.362  -1.648 -0.69 +0.00    +0.012 C 
DOCKED: ENDBRANCH  17  44
DOCKED: TORSDOF 10
DOCKED: TER
DOCKED: ENDMDL
________________________________________________________________________________


	BEGINNING GENETIC ALGORITHM DOCKING 33 of 100
Run: 33 Seed: 1369865881 1945843000 [ Run 33 of 100 GA/GALS ]
Beginning LAMARCKIAN GENETIC ALGORITHM (LGA), with a maximum of 25000000 energy evaluations.

Final-Value: -18.039


	FINAL GENETIC ALGORITHM DOCKED STATE
	_______________________________________________


Detailed state:  trans 24.430 -7.380 32.465 quatxyzw 0.647395 0.225566 -0.727994 0.004900 center -0.174 -0.001 -0.047 ntor 10 -158.0870 -38.5181 67.9440 -124.6865 144.6544 158.5244 75.0439 75.9422 22.2810 123.5834
State:	 24.430  -7.380  32.465   0.647  0.226 -0.728 179.439   -158.09  -38.52   67.94 -124.69  144.65  158.52   75.04   75.94   22.28  123.58

DOCKED: MODEL       33
DOCKED: USER    Run = 33
DOCKED: USER    DPF = D:/Protein_go_brrr/autodock/final/1A3N/heme_Fe/dock.dpf
DOCKED: USER  
DOCKED: USER    Estimated Free Energy of Binding    =  -13.13 kcal/mol  [=(1)+(2)+(3)-(4)]
DOCKED: USER    Estimated Inhibition Constant, Ki   =  239.02 pM (picomolar)  [Temperature = 298.15 K]
DOCKED: USER    
DOCKED: USER    (1) Final Intermolecular Energy     =  -16.11 kcal/mol
DOCKED: USER        vdW + Hbond + desolv Energy     =  -13.59 kcal/mol
DOCKED: USER        Electrostatic Energy            =   -2.52 kcal/mol
DOCKED: USER    (2) Final Total Internal Energy     =   -1.93 kcal/mol
DOCKED: USER    (3) Torsional Free Energy           =   +2.98 kcal/mol
DOCKED: USER    (4) Unbound System's Energy  [=(2)] =   -1.93 kcal/mol
DOCKED: USER    
DOCKED: USER    
DOCKED: USER    NEWDPF move heme_Fe_opt.pdbqt
DOCKED: USER    NEWDPF about -0.174000 -0.001000 -0.047000
DOCKED: USER    NEWDPF tran0 24.429855 -7.380155 32.465262
DOCKED: USER    NEWDPF quaternion0 0.647395 0.225566 -0.727994 0.004900
DOCKED: USER    NEWDPF axisangle0 0.647403 0.225568 -0.728003 179.438506
DOCKED: USER    NEWDPF quat0 0.647403 0.225568 -0.728003 179.438506
DOCKED: USER    NEWDPF dihe0 -158.09 -38.52 67.94 -124.69 144.65 158.52 75.04 75.94 22.28 123.58 
DOCKED: USER  keepresnum = 1 
DOCKED: USER  
DOCKED: REMARK  10 active torsions:
DOCKED: REMARK  status: ('A' for Active; 'I' for Inactive)
DOCKED: REMARK    1  A    between atoms: C_6  and  C_10 
DOCKED: REMARK    2  A    between atoms: C_10  and  C_11 
DOCKED: REMARK    3  A    between atoms: C_11  and  C_12 
DOCKED: REMARK    4  A    between atoms: C_12  and  O_14 
DOCKED: REMARK    5  A    between atoms: C_17  and  C_20 
DOCKED: REMARK    6  A    between atoms: C_24  and  C_27 
DOCKED: REMARK    7  A    between atoms: C_31  and  C_34 
DOCKED: REMARK    8  A    between atoms: C_34  and  C_35 
DOCKED: REMARK    9  A    between atoms: C_35  and  C_36 
DOCKED: REMARK   10  A    between atoms: C_36  and  O_38 
DOCKED: USER                              x       y       z     vdW  Elec       q    Type
DOCKED: USER                           _______ _______ _______ _____ _____    ______ ____
DOCKED: ROOT
DOCKED: ATOM      1  C   UNL d   1      24.231  -8.091  34.380 -0.32 +0.02    +0.064 C 
DOCKED: ATOM      2  C   UNL d   1      22.876  -3.950  32.047 -0.40 +0.01    +0.064 A 
DOCKED: ATOM      3  C   UNL d   1      23.723  -6.120  27.847 -0.43 +0.00    +0.064 C 
DOCKED: ATOM      4  C   UNL d   1      25.138 -10.103  30.087 -0.49 +0.00    +0.064 C 
DOCKED: ATOM      5  C   UNL d   1      23.851  -6.697  34.115 -0.23 +0.02    +0.066 A 
DOCKED: ATOM      6  C   UNL d   1      23.636  -5.737  35.090 -0.25 -0.01    -0.021 A 
DOCKED: ATOM      7  C   UNL d   1      23.256  -4.588  34.441 -0.32 -0.00    -0.025 A 
DOCKED: ATOM      8  C   UNL d   1      23.254  -4.891  33.094 -0.32 +0.01    +0.066 A 
DOCKED: ATOM      9  C   UNL d   1      22.935  -3.275  35.087 -0.36 +0.01    +0.051 C 
DOCKED: ATOM     10  C   UNL d   1      22.920  -4.199  30.737 -0.40 +0.01    +0.066 A 
DOCKED: ATOM     11  C   UNL d   1      22.444  -3.317  29.764 -0.44 -0.00    -0.021 A 
DOCKED: ATOM     12  C   UNL d   1      22.661  -3.927  28.545 -0.46 +0.00    +0.000 A 
DOCKED: ATOM     13  C   UNL d   1      23.257  -5.165  28.840 -0.38 +0.00    +0.070 A 
DOCKED: ATOM     14  C   UNL d   1      21.752  -1.988  29.988 -0.29 +0.01    +0.052 C 
DOCKED: ATOM     15  C   UNL d   1      24.250  -7.335  28.127 -0.39 +0.00    +0.066 A 
DOCKED: ATOM     16  C   UNL d   1      24.775  -8.177  27.154 -0.40 -0.00    -0.021 A 
DOCKED: ATOM     17  C   UNL d   1      25.181  -9.328  27.798 -0.48 +0.00    +0.000 A 
DOCKED: ATOM     18  C   UNL d   1      24.889  -9.163  29.150 -0.41 +0.00    +0.070 A 
DOCKED: ATOM     19  C   UNL d   1      24.869  -7.923  25.674 -0.47 +0.00    +0.052 C 
DOCKED: ATOM     20  C   UNL d   1      24.902  -9.941  31.527 -0.38 +0.01    +0.066 A 
DOCKED: ATOM     21  C   UNL d   1      24.966 -10.968  32.479 -0.31 -0.00    -0.025 A 
DOCKED: ATOM     22  C   UNL d   1      24.717 -10.370  33.697 -0.27 -0.00    -0.021 A 
DOCKED: ATOM     23  C   UNL d   1      24.505  -9.010  33.441 -0.30 +0.01    +0.066 A 
DOCKED: ATOM     24  C   UNL d   1      25.242 -12.438  32.264 -0.17 +0.00    +0.051 C 
DOCKED: ATOM     25  N   UNL d   1      23.625  -6.172  32.898 -0.22 -0.03    -0.248 N 
DOCKED: ATOM     26  N   UNL d   1      23.408  -5.335  30.177 -0.23 -0.01    -0.248 N 
DOCKED: ATOM     27  N   UNL d   1      24.358  -7.921  29.360 -0.24 -0.01    -0.248 N 
DOCKED: ATOM     28  N   UNL d   1      24.576  -8.762  32.110 -0.24 -0.03    -0.248 N 
DOCKED: ATOM     29 FE   UNL d   1      23.992  -7.051  31.143 -0.09 -0.00    +0.000 Fe
DOCKED: ENDROOT
DOCKED: BRANCH   6  30
DOCKED: ATOM     30  C   UNL d   1      23.803  -5.894  36.562 -0.21 +0.02    +0.052 C 
DOCKED: BRANCH  30  31
DOCKED: ATOM     31  C   UNL d   1      24.983  -5.068  37.064 -0.18 +0.05    +0.115 C 
DOCKED: BRANCH  31  32
DOCKED: ATOM     32  C   UNL d   1      26.157  -5.957  37.367 -0.07 +0.16    +0.139 C 
DOCKED: ATOM     33  O   UNL d   1      27.299  -5.575  37.156 -0.22 -1.00    -0.650 OA
DOCKED: BRANCH  32  34
DOCKED: ATOM     34  O   UNL d   1      25.960  -7.185  37.875 -0.22 -1.44    -0.776 OA
DOCKED: ATOM     35  H   UNL d   1      25.101  -7.612  37.750 +0.03 +0.18    +0.167 HD
DOCKED: ENDBRANCH  32  34
DOCKED: ENDBRANCH  31  32
DOCKED: ENDBRANCH  30  31
DOCKED: ENDBRANCH   6  30
DOCKED: BRANCH  22  36
DOCKED: ATOM     36  C   UNL d   1      24.638 -11.077  35.024 -0.22 +0.01    +0.052 C 
DOCKED: BRANCH  36  37
DOCKED: ATOM     37  C   UNL d   1      23.492 -10.502  35.844 -0.18 +0.03    +0.115 C 
DOCKED: BRANCH  37  38
DOCKED: ATOM     38  C   UNL d   1      24.008  -9.612  36.940 -0.14 +0.06    +0.139 C 
DOCKED: ATOM     39  O   UNL d   1      23.288  -8.766  37.449 +0.01 -0.23    -0.650 OA
DOCKED: BRANCH  38  40
DOCKED: ATOM     40  O   UNL d   1      25.276  -9.741  37.368 -0.11 -0.64    -0.776 OA
DOCKED: ATOM     41  H   UNL d   1      25.780  -8.946  37.590 +0.02 +0.27    +0.167 HD
DOCKED: ENDBRANCH  38  40
DOCKED: ENDBRANCH  37  38
DOCKED: ENDBRANCH  36  37
DOCKED: ENDBRANCH  22  36
DOCKED: BRANCH  12  42
DOCKED: ATOM     42  C   UNL d   1      22.293  -3.343  27.218 -0.54 +0.00    +0.004 C 
DOCKED: ATOM     43  C   UNL d   1      23.234  -3.030  26.318 -0.61 +0.00    +0.012 C 
DOCKED: ENDBRANCH  12  42
DOCKED: BRANCH  17  44
DOCKED: ATOM     44  C   UNL d   1      25.824 -10.501  27.163 -0.58 -0.00    +0.004 C 
DOCKED: ATOM     45  C   UNL d   1      25.127 -11.313  26.362 -0.69 -0.00    +0.012 C 
DOCKED: ENDBRANCH  17  44
DOCKED: TORSDOF 10
DOCKED: TER
DOCKED: ENDMDL
________________________________________________________________________________


	BEGINNING GENETIC ALGORITHM DOCKING 34 of 100
Run: 34 Seed: 1300464402 109419646 [ Run 34 of 100 GA/GALS ]
Beginning LAMARCKIAN GENETIC ALGORITHM (LGA), with a maximum of 25000000 energy evaluations.

Final-Value: -17.866


	FINAL GENETIC ALGORITHM DOCKED STATE
	_______________________________________________


Detailed state:  trans 2.855 -6.669 -4.347 quatxyzw -0.272610 -0.716571 -0.087564 -0.636037 center -0.174 -0.001 -0.047 ntor 10 -50.6970 156.0645 90.3928 -138.1290 37.8237 -24.8031 -61.2834 -72.9393 -175.3908 121.4860
State:	  2.855  -6.669  -4.347  -0.353 -0.929 -0.113 -101.006    -50.70  156.06   90.39 -138.13   37.82  -24.80  -61.28  -72.94 -175.39  121.49

DOCKED: MODEL       34
DOCKED: USER    Run = 34
DOCKED: USER    DPF = D:/Protein_go_brrr/autodock/final/1A3N/heme_Fe/dock.dpf
DOCKED: USER  
DOCKED: USER    Estimated Free Energy of Binding    =  -13.48 kcal/mol  [=(1)+(2)+(3)-(4)]
DOCKED: USER    Estimated Inhibition Constant, Ki   =  131.56 pM (picomolar)  [Temperature = 298.15 K]
DOCKED: USER    
DOCKED: USER    (1) Final Intermolecular Energy     =  -16.46 kcal/mol
DOCKED: USER        vdW + Hbond + desolv Energy     =  -14.38 kcal/mol
DOCKED: USER        Electrostatic Energy            =   -2.08 kcal/mol
DOCKED: USER    (2) Final Total Internal Energy     =   -1.40 kcal/mol
DOCKED: USER    (3) Torsional Free Energy           =   +2.98 kcal/mol
DOCKED: USER    (4) Unbound System's Energy  [=(2)] =   -1.40 kcal/mol
DOCKED: USER    
DOCKED: USER    
DOCKED: USER    NEWDPF move heme_Fe_opt.pdbqt
DOCKED: USER    NEWDPF about -0.174000 -0.001000 -0.047000
DOCKED: USER    NEWDPF tran0 2.854666 -6.668725 -4.346696
DOCKED: USER    NEWDPF quaternion0 -0.272610 -0.716571 -0.087564 -0.636037
DOCKED: USER    NEWDPF axisangle0 -0.353278 -0.928611 -0.113475 -101.006158
DOCKED: USER    NEWDPF quat0 -0.353278 -0.928611 -0.113475 -101.006158
DOCKED: USER    NEWDPF dihe0 -50.70 156.06 90.39 -138.13 37.82 -24.80 -61.28 -72.94 -175.39 121.49 
DOCKED: USER  keepresnum = 1 
DOCKED: USER  
DOCKED: REMARK  10 active torsions:
DOCKED: REMARK  status: ('A' for Active; 'I' for Inactive)
DOCKED: REMARK    1  A    between atoms: C_6  and  C_10 
DOCKED: REMARK    2  A    between atoms: C_10  and  C_11 
DOCKED: REMARK    3  A    between atoms: C_11  and  C_12 
DOCKED: REMARK    4  A    between atoms: C_12  and  O_14 
DOCKED: REMARK    5  A    between atoms: C_17  and  C_20 
DOCKED: REMARK    6  A    between atoms: C_24  and  C_27 
DOCKED: REMARK    7  A    between atoms: C_31  and  C_34 
DOCKED: REMARK    8  A    between atoms: C_34  and  C_35 
DOCKED: REMARK    9  A    between atoms: C_35  and  C_36 
DOCKED: REMARK   10  A    between atoms: C_36  and  O_38 
DOCKED: USER                              x       y       z     vdW  Elec       q    Type
DOCKED: USER                           _______ _______ _______ _____ _____    ______ ____
DOCKED: ROOT
DOCKED: ATOM      1  C   UNL d   1       2.449  -7.020  -6.327 -0.33 +0.02    +0.064 C 
DOCKED: ATOM      2  C   UNL d   1       0.793  -8.872  -2.054 -0.39 +0.00    +0.064 A 
DOCKED: ATOM      3  C   UNL d   1       2.770  -5.148   0.246 -0.41 +0.00    +0.064 C 
DOCKED: ATOM      4  C   UNL d   1       4.472  -3.394  -3.866 -0.50 +0.01    +0.064 C 
DOCKED: ATOM      5  C   UNL d   1       1.871  -7.930  -5.329 -0.32 +0.01    +0.066 A 
DOCKED: ATOM      6  C   UNL d   1       1.310  -9.164  -5.615 -0.31 -0.00    -0.021 A 
DOCKED: ATOM      7  C   UNL d   1       0.847  -9.676  -4.428 -0.33 -0.00    -0.025 A 
DOCKED: ATOM      8  C   UNL d   1       1.144  -8.734  -3.462 -0.29 +0.01    +0.066 A 
DOCKED: ATOM      9  C   UNL d   1       0.178 -11.003  -4.240 -0.17 +0.00    +0.051 C 
DOCKED: ATOM     10  C   UNL d   1       1.118  -8.005  -1.093 -0.38 +0.00    +0.066 A 
DOCKED: ATOM     11  C   UNL d   1       0.669  -8.106   0.226 -0.43 -0.00    -0.021 A 
DOCKED: ATOM     12  C   UNL d   1       1.212  -7.035   0.906 -0.34 +0.00    +0.000 A 
DOCKED: ATOM     13  C   UNL d   1       1.964  -6.323  -0.045 -0.37 +0.00    +0.070 A 
DOCKED: ATOM     14  C   UNL d   1      -0.286  -9.136   0.795 -0.59 -0.00    +0.052 C 
DOCKED: ATOM     15  C   UNL d   1       3.454  -4.429  -0.675 -0.37 +0.00    +0.066 A 
DOCKED: ATOM     16  C   UNL d   1       4.292  -3.372  -0.344 -0.47 -0.00    -0.021 A 
DOCKED: ATOM     17  C   UNL d   1       4.782  -2.863  -1.528 -0.48 +0.00    +0.000 A 
DOCKED: ATOM     18  C   UNL d   1       4.226  -3.620  -2.557 -0.39 +0.01    +0.070 A 
DOCKED: ATOM     19  C   UNL d   1       4.603  -2.843   1.031 -0.48 +0.00    +0.052 C 
DOCKED: ATOM     20  C   UNL d   1       3.955  -4.207  -4.973 -0.41 +0.01    +0.066 A 
DOCKED: ATOM     21  C   UNL d   1       4.035  -3.871  -6.332 -0.43 -0.00    -0.025 A 
DOCKED: ATOM     22  C   UNL d   1       3.464  -4.924  -7.016 -0.34 -0.00    -0.021 A 
DOCKED: ATOM     23  C   UNL d   1       3.054  -5.854  -6.052 -0.29 +0.01    +0.066 A 
DOCKED: ATOM     24  C   UNL d   1       4.613  -2.626  -6.963 -0.38 +0.00    +0.051 C 
DOCKED: ATOM     25  N   UNL d   1       1.776  -7.677  -4.012 -0.20 -0.02    -0.248 N 
DOCKED: ATOM     26  N   UNL d   1       1.900  -6.909  -1.265 -0.24 -0.00    -0.248 N 
DOCKED: ATOM     27  N   UNL d   1       3.445  -4.610  -2.032 -0.23 -0.01    -0.248 N 
DOCKED: ATOM     28  N   UNL d   1       3.316  -5.390  -4.806 -0.24 -0.04    -0.248 N 
DOCKED: ATOM     29 FE   UNL d   1       2.609  -6.148  -3.036 -0.09 -0.00    +0.000 Fe
DOCKED: ENDROOT
DOCKED: BRANCH   6  30
DOCKED: ATOM     30  C   UNL d   1       1.236  -9.835  -6.944 -0.24 +0.01    +0.052 C 
DOCKED: BRANCH  30  31
DOCKED: ATOM     31  C   UNL d   1       0.000  -9.377  -7.711 -0.18 +0.05    +0.115 C 
DOCKED: BRANCH  31  32
DOCKED: ATOM     32  C   UNL d   1       0.398  -8.702  -8.994 -0.15 +0.08    +0.139 C 
DOCKED: ATOM     33  O   UNL d   1       1.345  -9.115  -9.649 +0.02 -0.22    -0.650 OA
DOCKED: BRANCH  32  34
DOCKED: ATOM     34  O   UNL d   1      -0.287  -7.632  -9.434 -0.27 -1.02    -0.776 OA
DOCKED: ATOM     35  H   UNL d   1       0.199  -6.833  -9.682 +0.03 +0.23    +0.167 HD
DOCKED: ENDBRANCH  32  34
DOCKED: ENDBRANCH  31  32
DOCKED: ENDBRANCH  30  31
DOCKED: ENDBRANCH   6  30
DOCKED: BRANCH  22  36
DOCKED: ATOM     36  C   UNL d   1       3.280  -5.008  -8.508 -0.28 +0.01    +0.052 C 
DOCKED: BRANCH  36  37
DOCKED: ATOM     37  C   UNL d   1       1.941  -5.658  -8.824 -0.23 +0.06    +0.115 C 
DOCKED: BRANCH  37  38
DOCKED: ATOM     38  C   UNL d   1       0.950  -4.640  -9.315 -0.27 +0.11    +0.139 C 
DOCKED: ATOM     39  O   UNL d   1       1.062  -3.462  -9.011 -0.07 -0.34    -0.650 OA
DOCKED: BRANCH  38  40
DOCKED: ATOM     40  O   UNL d   1      -0.076  -5.024 -10.095 -0.18 -1.28    -0.776 OA
DOCKED: ATOM     41  H   UNL d   1       0.008  -5.835 -10.616 +0.04 +0.24    +0.167 HD
DOCKED: ENDBRANCH  38  40
DOCKED: ENDBRANCH  37  38
DOCKED: ENDBRANCH  36  37
DOCKED: ENDBRANCH  22  36
DOCKED: BRANCH  12  42
DOCKED: ATOM     42  C   UNL d   1       0.987  -6.738   2.354 -0.51 +0.00    +0.004 C 
DOCKED: ATOM     43  C   UNL d   1       1.994  -6.332   3.139 -0.54 +0.00    +0.012 C 
DOCKED: ENDBRANCH  12  42
DOCKED: BRANCH  17  44
DOCKED: ATOM     44  C   UNL d   1       5.735  -1.738  -1.666 -0.65 +0.00    +0.004 C 
DOCKED: ATOM     45  C   UNL d   1       5.305  -0.472  -1.662 -0.68 +0.00    +0.012 C 
DOCKED: ENDBRANCH  17  44
DOCKED: TORSDOF 10
DOCKED: TER
DOCKED: ENDMDL
________________________________________________________________________________


	BEGINNING GENETIC ALGORITHM DOCKING 35 of 100
Run: 35 Seed: 279913204 397141351 [ Run 35 of 100 GA/GALS ]
Beginning LAMARCKIAN GENETIC ALGORITHM (LGA), with a maximum of 25000000 energy evaluations.

Final-Value: -17.124


	FINAL GENETIC ALGORITHM DOCKED STATE
	_______________________________________________


Detailed state:  trans 7.647 12.358 29.651 quatxyzw -0.213912 0.706201 0.024896 -0.674464 center -0.174 -0.001 -0.047 ntor 10 -138.6273 -74.7664 23.6607 -108.4187 12.4303 159.8418 44.9228 -17.6799 -134.4894 -55.4814
State:	  7.647  12.358  29.651  -0.290  0.957  0.034 -95.175   -138.63  -74.77   23.66 -108.42   12.43  159.84   44.92  -17.68 -134.49  -55.48

DOCKED: MODEL       35
DOCKED: USER    Run = 35
DOCKED: USER    DPF = D:/Protein_go_brrr/autodock/final/1A3N/heme_Fe/dock.dpf
DOCKED: USER  
DOCKED: USER    Estimated Free Energy of Binding    =  -14.05 kcal/mol  [=(1)+(2)+(3)-(4)]
DOCKED: USER    Estimated Inhibition Constant, Ki   =   50.58 pM (picomolar)  [Temperature = 298.15 K]
DOCKED: USER    
DOCKED: USER    (1) Final Intermolecular Energy     =  -17.03 kcal/mol
DOCKED: USER        vdW + Hbond + desolv Energy     =  -14.01 kcal/mol
DOCKED: USER        Electrostatic Energy            =   -3.02 kcal/mol
DOCKED: USER    (2) Final Total Internal Energy     =   -0.09 kcal/mol
DOCKED: USER    (3) Torsional Free Energy           =   +2.98 kcal/mol
DOCKED: USER    (4) Unbound System's Energy  [=(2)] =   -0.09 kcal/mol
DOCKED: USER    
DOCKED: USER    
DOCKED: USER    NEWDPF move heme_Fe_opt.pdbqt
DOCKED: USER    NEWDPF about -0.174000 -0.001000 -0.047000
DOCKED: USER    NEWDPF tran0 7.647394 12.357610 29.651453
DOCKED: USER    NEWDPF quaternion0 -0.213912 0.706201 0.024896 -0.674464
DOCKED: USER    NEWDPF axisangle0 -0.289733 0.956513 0.033720 -95.174949
DOCKED: USER    NEWDPF quat0 -0.289733 0.956513 0.033720 -95.174949
DOCKED: USER    NEWDPF dihe0 -138.63 -74.77 23.66 -108.42 12.43 159.84 44.92 -17.68 -134.49 -55.48 
DOCKED: USER  keepresnum = 1 
DOCKED: USER  
DOCKED: REMARK  10 active torsions:
DOCKED: REMARK  status: ('A' for Active; 'I' for Inactive)
DOCKED: REMARK    1  A    between atoms: C_6  and  C_10 
DOCKED: REMARK    2  A    between atoms: C_10  and  C_11 
DOCKED: REMARK    3  A    between atoms: C_11  and  C_12 
DOCKED: REMARK    4  A    between atoms: C_12  and  O_14 
DOCKED: REMARK    5  A    between atoms: C_17  and  C_20 
DOCKED: REMARK    6  A    between atoms: C_24  and  C_27 
DOCKED: REMARK    7  A    between atoms: C_31  and  C_34 
DOCKED: REMARK    8  A    between atoms: C_34  and  C_35 
DOCKED: REMARK    9  A    between atoms: C_35  and  C_36 
DOCKED: REMARK   10  A    between atoms: C_36  and  O_38 
DOCKED: USER                              x       y       z     vdW  Elec       q    Type
DOCKED: USER                           _______ _______ _______ _____ _____    ______ ____
DOCKED: ROOT
DOCKED: ATOM      1  C   UNL d   1       8.166  13.008  31.527 -0.26 +0.03    +0.064 C 
DOCKED: ATOM      2  C   UNL d   1       9.104   8.948  28.869 -0.34 +0.01    +0.064 A 
DOCKED: ATOM      3  C   UNL d   1       7.568  11.248  24.942 -0.35 +0.00    +0.064 C 
DOCKED: ATOM      4  C   UNL d   1       6.554  15.152  27.514 -0.48 +0.01    +0.064 C 
DOCKED: ATOM      5  C   UNL d   1       8.494  11.624  31.158 -0.24 +0.02    +0.066 A 
DOCKED: ATOM      6  C   UNL d   1       8.867  10.635  32.052 -0.35 -0.01    -0.021 A 
DOCKED: ATOM      7  C   UNL d   1       9.132   9.509  31.313 -0.40 -0.01    -0.025 A 
DOCKED: ATOM      8  C   UNL d   1       8.908   9.855  29.994 -0.38 +0.02    +0.066 A 
DOCKED: ATOM      9  C   UNL d   1       9.554   8.177  31.853 -0.50 +0.01    +0.051 C 
DOCKED: ATOM     10  C   UNL d   1       8.841   9.239  27.594 -0.39 +0.01    +0.066 A 
DOCKED: ATOM     11  C   UNL d   1       9.147   8.390  26.527 -0.42 -0.00    -0.021 A 
DOCKED: ATOM     12  C   UNL d   1       8.729   9.038  25.382 -0.45 +0.00    +0.000 A 
DOCKED: ATOM     13  C   UNL d   1       8.192  10.264  25.812 -0.35 +0.01    +0.070 A 
DOCKED: ATOM     14  C   UNL d   1       9.864   7.057  26.589 -0.29 +0.01    +0.052 C 
DOCKED: ATOM     15  C   UNL d   1       7.097  12.451  25.345 -0.35 +0.00    +0.066 A 
DOCKED: ATOM     16  C   UNL d   1       6.418  13.321  24.502 -0.37 -0.00    -0.021 A 
DOCKED: ATOM     17  C   UNL d   1       6.128  14.450  25.241 -0.41 +0.00    +0.000 A 
DOCKED: ATOM     18  C   UNL d   1       6.641  14.243  26.519 -0.35 +0.01    +0.070 A 
DOCKED: ATOM     19  C   UNL d   1       6.076  13.114  23.051 -0.44 +0.00    +0.052 C 
DOCKED: ATOM     20  C   UNL d   1       7.028  14.945  28.888 -0.37 +0.01    +0.066 A 
DOCKED: ATOM     21  C   UNL d   1       7.126  15.941  29.869 -0.32 -0.01    -0.025 A 
DOCKED: ATOM     22  C   UNL d   1       7.576  15.306  31.008 -0.30 -0.01    -0.021 A 
DOCKED: ATOM     23  C   UNL d   1       7.739  13.955  30.677 -0.23 +0.02    +0.066 A 
DOCKED: ATOM     24  C   UNL d   1       6.821  17.416  29.750 -0.15 +0.01    +0.051 C 
DOCKED: ATOM     25  N   UNL d   1       8.511  11.140  29.904 -0.23 -0.06    -0.248 N 
DOCKED: ATOM     26  N   UNL d   1       8.269  10.390  27.160 -0.23 -0.03    -0.248 N 
DOCKED: ATOM     27  N   UNL d   1       7.199  12.997  26.597 -0.23 -0.02    -0.248 N 
DOCKED: ATOM     28  N   UNL d   1       7.446  13.750  29.370 -0.18 -0.06    -0.248 N 
DOCKED: ATOM     29 FE   UNL d   1       7.857  12.072  28.265 -0.08 +0.00    +0.000 Fe
DOCKED: ENDROOT
DOCKED: BRANCH   6  30
DOCKED: ATOM     30  C   UNL d   1       8.950  10.745  33.536 -0.31 +0.03    +0.052 C 
DOCKED: BRANCH  30  31
DOCKED: ATOM     31  C   UNL d   1       9.648  12.037  33.944 -0.19 +0.09    +0.115 C 
DOCKED: BRANCH  31  32
DOCKED: ATOM     32  C   UNL d   1      10.652  11.772  35.031 -0.06 +0.19    +0.139 C 
DOCKED: ATOM     33  O   UNL d   1      10.981  10.628  35.311 -0.10 -1.05    -0.650 OA
DOCKED: BRANCH  32  34
DOCKED: ATOM     34  O   UNL d   1      11.199  12.796  35.709 -0.39 -1.24    -0.776 OA
DOCKED: ATOM     35  H   UNL d   1      10.636  13.536  35.976 +0.04 +0.16    +0.167 HD
DOCKED: ENDBRANCH  32  34
DOCKED: ENDBRANCH  31  32
DOCKED: ENDBRANCH  30  31
DOCKED: ENDBRANCH   6  30
DOCKED: BRANCH  22  36
DOCKED: ATOM     36  C   UNL d   1       7.877  15.970  32.326 -0.25 +0.03    +0.052 C 
DOCKED: BRANCH  36  37
DOCKED: ATOM     37  C   UNL d   1       6.804  17.003  32.637 -0.15 +0.08    +0.115 C 
DOCKED: BRANCH  37  38
DOCKED: ATOM     38  C   UNL d   1       6.805  17.358  34.097 -0.06 +0.14    +0.139 C 
DOCKED: ATOM     39  O   UNL d   1       6.299  18.399  34.488 -0.08 -0.50    -0.650 OA
DOCKED: BRANCH  38  40
DOCKED: ATOM     40  O   UNL d   1       7.371  16.526  34.989 -0.56 -1.07    -0.776 OA
DOCKED: ATOM     41  H   UNL d   1       8.231  16.758  35.369 +0.02 +0.14    +0.167 HD
DOCKED: ENDBRANCH  38  40
DOCKED: ENDBRANCH  37  38
DOCKED: ENDBRANCH  36  37
DOCKED: ENDBRANCH  22  36
DOCKED: BRANCH  12  42
DOCKED: ATOM     42  C   UNL d   1       8.868   8.498  23.994 -0.68 +0.00    +0.004 C 
DOCKED: ATOM     43  C   UNL d   1       8.114   7.474  23.574 -0.65 +0.00    +0.012 C 
DOCKED: ENDBRANCH  12  42
DOCKED: BRANCH  17  44
DOCKED: ATOM     44  C   UNL d   1       5.389  15.639  24.760 -0.55 +0.00    +0.004 C 
DOCKED: ATOM     45  C   UNL d   1       5.785  16.295  23.664 -0.61 +0.00    +0.012 C 
DOCKED: ENDBRANCH  17  44
DOCKED: TORSDOF 10
DOCKED: TER
DOCKED: ENDMDL
________________________________________________________________________________


	BEGINNING GENETIC ALGORITHM DOCKING 36 of 100
Run: 36 Seed: 1480709295 989278283 [ Run 36 of 100 GA/GALS ]
Beginning LAMARCKIAN GENETIC ALGORITHM (LGA), with a maximum of 25000000 energy evaluations.

Final-Value: -17.155


	FINAL GENETIC ALGORITHM DOCKED STATE
	_______________________________________________


Detailed state:  trans 23.668 -5.978 33.324 quatxyzw 0.710274 0.090113 -0.696095 -0.053307 center -0.174 -0.001 -0.047 ntor 10 -8.5441 -163.5369 42.6895 -107.0181 96.2555 -79.2662 113.3527 130.8446 3.3357 28.5399
State:	 23.668  -5.978  33.324   0.711  0.090 -0.697 -173.889     -8.54 -163.54   42.69 -107.02   96.26  -79.27  113.35  130.84    3.34   28.54

DOCKED: MODEL       36
DOCKED: USER    Run = 36
DOCKED: USER    DPF = D:/Protein_go_brrr/autodock/final/1A3N/heme_Fe/dock.dpf
DOCKED: USER  
DOCKED: USER    Estimated Free Energy of Binding    =  -11.95 kcal/mol  [=(1)+(2)+(3)-(4)]
DOCKED: USER    Estimated Inhibition Constant, Ki   =    1.75 nM (nanomolar)  [Temperature = 298.15 K]
DOCKED: USER    
DOCKED: USER    (1) Final Intermolecular Energy     =  -14.93 kcal/mol
DOCKED: USER        vdW + Hbond + desolv Energy     =  -12.73 kcal/mol
DOCKED: USER        Electrostatic Energy            =   -2.20 kcal/mol
DOCKED: USER    (2) Final Total Internal Energy     =   -2.23 kcal/mol
DOCKED: USER    (3) Torsional Free Energy           =   +2.98 kcal/mol
DOCKED: USER    (4) Unbound System's Energy  [=(2)] =   -2.23 kcal/mol
DOCKED: USER    
DOCKED: USER    
DOCKED: USER    NEWDPF move heme_Fe_opt.pdbqt
DOCKED: USER    NEWDPF about -0.174000 -0.001000 -0.047000
DOCKED: USER    NEWDPF tran0 23.667900 -5.978084 33.323507
DOCKED: USER    NEWDPF quaternion0 0.710274 0.090113 -0.696095 -0.053307
DOCKED: USER    NEWDPF axisangle0 0.711285 0.090241 -0.697086 -173.888611
DOCKED: USER    NEWDPF quat0 0.711285 0.090241 -0.697086 -173.888611
DOCKED: USER    NEWDPF dihe0 -8.54 -163.54 42.69 -107.02 96.26 -79.27 113.35 130.84 3.34 28.54 
DOCKED: USER  keepresnum = 1 
DOCKED: USER  
DOCKED: REMARK  10 active torsions:
DOCKED: REMARK  status: ('A' for Active; 'I' for Inactive)
DOCKED: REMARK    1  A    between atoms: C_6  and  C_10 
DOCKED: REMARK    2  A    between atoms: C_10  and  C_11 
DOCKED: REMARK    3  A    between atoms: C_11  and  C_12 
DOCKED: REMARK    4  A    between atoms: C_12  and  O_14 
DOCKED: REMARK    5  A    between atoms: C_17  and  C_20 
DOCKED: REMARK    6  A    between atoms: C_24  and  C_27 
DOCKED: REMARK    7  A    between atoms: C_31  and  C_34 
DOCKED: REMARK    8  A    between atoms: C_34  and  C_35 
DOCKED: REMARK    9  A    between atoms: C_35  and  C_36 
DOCKED: REMARK   10  A    between atoms: C_36  and  O_38 
DOCKED: USER                              x       y       z     vdW  Elec       q    Type
DOCKED: USER                           _______ _______ _______ _____ _____    ______ ____
DOCKED: ROOT
DOCKED: ATOM      1  C   UNL d   1      23.106  -6.134  35.291 -0.22 +0.01    +0.064 C 
DOCKED: ATOM      2  C   UNL d   1      22.677  -2.646  31.815 -0.47 +0.01    +0.064 A 
DOCKED: ATOM      3  C   UNL d   1      23.797  -5.923  28.487 -0.44 +0.00    +0.064 C 
DOCKED: ATOM      4  C   UNL d   1      24.320  -9.289  31.846 -0.39 +0.01    +0.064 C 
DOCKED: ATOM      5  C   UNL d   1      22.963  -4.829  34.630 -0.28 +0.01    +0.066 A 
DOCKED: ATOM      6  C   UNL d   1      22.749  -3.629  35.287 -0.30 -0.00    -0.021 A 
DOCKED: ATOM      7  C   UNL d   1      22.626  -2.662  34.321 -0.42 -0.00    -0.025 A 
DOCKED: ATOM      8  C   UNL d   1      22.771  -3.309  33.110 -0.42 +0.01    +0.066 A 
DOCKED: ATOM      9  C   UNL d   1      22.402  -1.200  34.559 -0.15 +0.00    +0.051 C 
DOCKED: ATOM     10  C   UNL d   1      22.870  -3.237  30.634 -0.43 +0.01    +0.066 A 
DOCKED: ATOM     11  C   UNL d   1      22.661  -2.602  29.407 -0.48 -0.00    -0.021 A 
DOCKED: ATOM     12  C   UNL d   1      22.960  -3.531  28.431 -0.46 +0.00    +0.000 A 
DOCKED: ATOM     13  C   UNL d   1      23.333  -4.699  29.120 -0.38 +0.00    +0.070 A 
DOCKED: ATOM     14  C   UNL d   1      22.134  -1.200  29.176 -0.55 +0.00    +0.052 C 
DOCKED: ATOM     15  C   UNL d   1      24.106  -7.066  29.143 -0.30 +0.00    +0.066 A 
DOCKED: ATOM     16  C   UNL d   1      24.641  -8.182  28.512 -0.38 -0.00    -0.021 A 
DOCKED: ATOM     17  C   UNL d   1      24.789  -9.156  29.478 -0.45 +0.00    +0.000 A 
DOCKED: ATOM     18  C   UNL d   1      24.337  -8.611  30.678 -0.33 +0.00    +0.070 A 
DOCKED: ATOM     19  C   UNL d   1      24.976  -8.339  27.053 -0.40 +0.00    +0.052 C 
DOCKED: ATOM     20  C   UNL d   1      23.909  -8.729  33.139 -0.31 +0.01    +0.066 A 
DOCKED: ATOM     21  C   UNL d   1      23.696  -9.469  34.311 -0.29 -0.01    -0.025 A 
DOCKED: ATOM     22  C   UNL d   1      23.363  -8.548  35.283 -0.26 -0.01    -0.021 A 
DOCKED: ATOM     23  C   UNL d   1      23.380  -7.291  34.668 -0.27 +0.02    +0.066 A 
DOCKED: ATOM     24  C   UNL d   1      23.793 -10.963  34.514 -0.18 +0.01    +0.051 C 
DOCKED: ATOM     25  N   UNL d   1      22.985  -4.626  33.301 -0.25 -0.04    -0.248 N 
DOCKED: ATOM     26  N   UNL d   1      23.269  -4.523  30.463 -0.25 -0.03    -0.248 N 
DOCKED: ATOM     27  N   UNL d   1      23.958  -7.312  30.482 -0.06 +0.01    -0.248 N 
DOCKED: ATOM     28  N   UNL d   1      23.670  -7.412  33.349 -0.22 -0.04    -0.248 N 
DOCKED: ATOM     29 FE   UNL d   1      23.470  -5.969  31.906 -0.09 +0.00    +0.000 Fe
DOCKED: ENDROOT
DOCKED: BRANCH   6  30
DOCKED: ATOM     30  C   UNL d   1      22.684  -3.406  36.760 -0.21 +0.01    +0.052 C 
DOCKED: BRANCH  30  31
DOCKED: ATOM     31  C   UNL d   1      24.055  -3.027  37.309 -0.17 +0.02    +0.115 C 
DOCKED: BRANCH  31  32
DOCKED: ATOM     32  C   UNL d   1      25.010  -4.182  37.185 -0.18 +0.05    +0.139 C 
DOCKED: ATOM     33  O   UNL d   1      25.774  -4.260  36.233 +0.04 -0.23    -0.650 OA
DOCKED: BRANCH  32  34
DOCKED: ATOM     34  O   UNL d   1      25.032  -5.143  38.124 +0.06 -0.39    -0.776 OA
DOCKED: ATOM     35  H   UNL d   1      25.559  -5.939  37.968 +0.04 +0.14    +0.167 HD
DOCKED: ENDBRANCH  32  34
DOCKED: ENDBRANCH  31  32
DOCKED: ENDBRANCH  30  31
DOCKED: ENDBRANCH   6  30
DOCKED: BRANCH  22  36
DOCKED: ATOM     36  C   UNL d   1      23.002  -8.867  36.710 -0.20 +0.02    +0.052 C 
DOCKED: BRANCH  36  37
DOCKED: ATOM     37  C   UNL d   1      23.894  -8.076  37.654 -0.13 +0.06    +0.115 C 
DOCKED: BRANCH  37  38
DOCKED: ATOM     38  C   UNL d   1      25.342  -8.229  37.282 +0.06 +0.17    +0.139 C 
DOCKED: ATOM     39  O   UNL d   1      25.967  -9.230  37.600 -0.33 -1.04    -0.650 OA
DOCKED: BRANCH  38  40
DOCKED: ATOM     40  O   UNL d   1      25.965  -7.255  36.595 -0.06 -1.15    -0.776 OA
DOCKED: ATOM     41  H   UNL d   1      25.559  -6.378  36.551 +0.04 +0.15    +0.167 HD
DOCKED: ENDBRANCH  38  40
DOCKED: ENDBRANCH  37  38
DOCKED: ENDBRANCH  36  37
DOCKED: ENDBRANCH  22  36
DOCKED: BRANCH  12  42
DOCKED: ATOM     42  C   UNL d   1      22.866  -3.287  26.959 -0.61 +0.00    +0.004 C 
DOCKED: ATOM     43  C   UNL d   1      23.916  -2.823  26.269 -0.65 +0.00    +0.012 C 
DOCKED: ENDBRANCH  12  42
DOCKED: BRANCH  17  44
DOCKED: ATOM     44  C   UNL d   1      25.347 -10.511  29.271 -0.53 +0.00    +0.004 C 
DOCKED: ATOM     45  C   UNL d   1      24.860 -11.314  28.319 -0.49 +0.00    +0.012 C 
DOCKED: ENDBRANCH  17  44
DOCKED: TORSDOF 10
DOCKED: TER
DOCKED: ENDMDL
________________________________________________________________________________


	BEGINNING GENETIC ALGORITHM DOCKING 37 of 100
Run: 37 Seed: 1077629195 1796794123 [ Run 37 of 100 GA/GALS ]
Beginning LAMARCKIAN GENETIC ALGORITHM (LGA), with a maximum of 25000000 energy evaluations.

Final-Value: -16.825


	FINAL GENETIC ALGORITHM DOCKED STATE
	_______________________________________________


Detailed state:  trans 8.492 12.188 29.458 quatxyzw 0.593667 0.050402 -0.787378 -0.158286 center -0.174 -0.001 -0.047 ntor 10 -136.5554 122.8063 68.3700 -154.7947 60.0398 0.4925 -89.6859 -53.8635 178.7268 -63.6794
State:	  8.492  12.188  29.458   0.601  0.051 -0.797 -161.785   -136.56  122.81   68.37 -154.79   60.04    0.49  -89.69  -53.86  178.73  -63.68

DOCKED: MODEL       37
DOCKED: USER    Run = 37
DOCKED: USER    DPF = D:/Protein_go_brrr/autodock/final/1A3N/heme_Fe/dock.dpf
DOCKED: USER  
DOCKED: USER    Estimated Free Energy of Binding    =  -13.69 kcal/mol  [=(1)+(2)+(3)-(4)]
DOCKED: USER    Estimated Inhibition Constant, Ki   =   92.36 pM (picomolar)  [Temperature = 298.15 K]
DOCKED: USER    
DOCKED: USER    (1) Final Intermolecular Energy     =  -16.67 kcal/mol
DOCKED: USER        vdW + Hbond + desolv Energy     =  -13.34 kcal/mol
DOCKED: USER        Electrostatic Energy            =   -3.33 kcal/mol
DOCKED: USER    (2) Final Total Internal Energy     =   -0.15 kcal/mol
DOCKED: USER    (3) Torsional Free Energy           =   +2.98 kcal/mol
DOCKED: USER    (4) Unbound System's Energy  [=(2)] =   -0.15 kcal/mol
DOCKED: USER    
DOCKED: USER    
DOCKED: USER    NEWDPF move heme_Fe_opt.pdbqt
DOCKED: USER    NEWDPF about -0.174000 -0.001000 -0.047000
DOCKED: USER    NEWDPF tran0 8.491884 12.188419 29.458238
DOCKED: USER    NEWDPF quaternion0 0.593667 0.050402 -0.787378 -0.158286
DOCKED: USER    NEWDPF axisangle0 0.601247 0.051045 -0.797431 -161.785119
DOCKED: USER    NEWDPF quat0 0.601247 0.051045 -0.797431 -161.785119
DOCKED: USER    NEWDPF dihe0 -136.56 122.81 68.37 -154.79 60.04 0.49 -89.69 -53.86 178.73 -63.68 
DOCKED: USER  keepresnum = 1 
DOCKED: USER  
DOCKED: REMARK  10 active torsions:
DOCKED: REMARK  status: ('A' for Active; 'I' for Inactive)
DOCKED: REMARK    1  A    between atoms: C_6  and  C_10 
DOCKED: REMARK    2  A    between atoms: C_10  and  C_11 
DOCKED: REMARK    3  A    between atoms: C_11  and  C_12 
DOCKED: REMARK    4  A    between atoms: C_12  and  O_14 
DOCKED: REMARK    5  A    between atoms: C_17  and  C_20 
DOCKED: REMARK    6  A    between atoms: C_24  and  C_27 
DOCKED: REMARK    7  A    between atoms: C_31  and  C_34 
DOCKED: REMARK    8  A    between atoms: C_34  and  C_35 
DOCKED: REMARK    9  A    between atoms: C_35  and  C_36 
DOCKED: REMARK   10  A    between atoms: C_36  and  O_38 
DOCKED: USER                              x       y       z     vdW  Elec       q    Type
DOCKED: USER                           _______ _______ _______ _____ _____    ______ ____
DOCKED: ROOT
DOCKED: ATOM      1  C   UNL d   1       8.470  12.477  31.490 -0.31 +0.02    +0.064 C 
DOCKED: ATOM      2  C   UNL d   1       6.726  14.979  27.600 -0.41 +0.01    +0.064 A 
DOCKED: ATOM      3  C   UNL d   1       7.387  11.076  24.881 -0.26 +0.00    +0.064 C 
DOCKED: ATOM      4  C   UNL d   1       9.176   8.670  28.608 -0.41 +0.01    +0.064 C 
DOCKED: ATOM      5  C   UNL d   1       7.996  13.569  30.629 -0.26 +0.02    +0.066 A 
DOCKED: ATOM      6  C   UNL d   1       7.800  14.876  31.045 -0.30 -0.01    -0.021 A 
DOCKED: ATOM      7  C   UNL d   1       7.311  15.569  29.965 -0.34 -0.01    -0.025 A 
DOCKED: ATOM      8  C   UNL d   1       7.229  14.658  28.930 -0.36 +0.01    +0.066 A 
DOCKED: ATOM      9  C   UNL d   1       6.966  17.026  29.934 -0.07 +0.01    +0.051 C 
DOCKED: ATOM     10  C   UNL d   1       6.690  14.134  26.568 -0.35 +0.01    +0.066 A 
DOCKED: ATOM     11  C   UNL d   1       6.096  14.436  25.340 -0.38 -0.00    -0.021 A 
DOCKED: ATOM     12  C   UNL d   1       6.259  13.320  24.543 -0.38 +0.00    +0.000 A 
DOCKED: ATOM     13  C   UNL d   1       6.942  12.383  25.338 -0.34 +0.00    +0.070 A 
DOCKED: ATOM     14  C   UNL d   1       5.350  15.700  24.966 -0.48 +0.00    +0.052 C 
DOCKED: ATOM     15  C   UNL d   1       7.999  10.150  25.656 -0.34 +0.01    +0.066 A 
DOCKED: ATOM     16  C   UNL d   1       8.498   8.953  25.158 -0.43 -0.00    -0.021 A 
DOCKED: ATOM     17  C   UNL d   1       9.012   8.256  26.232 -0.44 +0.00    +0.000 A 
DOCKED: ATOM     18  C   UNL d   1       8.810   9.044  27.363 -0.38 +0.01    +0.070 A 
DOCKED: ATOM     19  C   UNL d   1       8.472   8.469  23.733 -0.64 +0.00    +0.052 C 
DOCKED: ATOM     20  C   UNL d   1       9.036   9.497  29.812 -0.37 +0.02    +0.066 A 
DOCKED: ATOM     21  C   UNL d   1       9.224   9.052  31.128 -0.36 -0.01    -0.025 A 
DOCKED: ATOM     22  C   UNL d   1       9.030  10.156  31.932 -0.37 -0.01    -0.021 A 
DOCKED: ATOM     23  C   UNL d   1       8.727  11.225  31.080 -0.28 +0.02    +0.066 A 
DOCKED: ATOM     24  C   UNL d   1       9.564   7.662  31.614 -0.40 +0.01    +0.051 C 
DOCKED: ATOM     25  N   UNL d   1       7.655  13.445  29.334 -0.13 -0.05    -0.248 N 
DOCKED: ATOM     26  N   UNL d   1       7.197  12.875  26.575 -0.23 -0.02    -0.248 N 
DOCKED: ATOM     27  N   UNL d   1       8.227  10.227  27.004 -0.23 -0.03    -0.248 N 
DOCKED: ATOM     28  N   UNL d   1       8.688  10.807  29.791 -0.25 -0.06    -0.248 N 
DOCKED: ATOM     29 FE   UNL d   1       7.943  11.839  28.183 -0.08 +0.00    +0.000 Fe
DOCKED: ENDROOT
DOCKED: BRANCH   6  30
DOCKED: ATOM     30  C   UNL d   1       8.080  15.445  32.394 -0.25 +0.03    +0.052 C 
DOCKED: BRANCH  30  31
DOCKED: ATOM     31  C   UNL d   1       6.843  15.366  33.282 -0.11 +0.13    +0.115 C 
DOCKED: BRANCH  31  32
DOCKED: ATOM     32  C   UNL d   1       6.826  14.071  34.046 -0.02 +0.20    +0.139 C 
DOCKED: ATOM     33  O   UNL d   1       7.735  13.789  34.814 +0.02 -0.70    -0.650 OA
DOCKED: BRANCH  32  34
DOCKED: ATOM     34  O   UNL d   1       5.807  13.209  33.891 -0.39 -1.16    -0.776 OA
DOCKED: ATOM     35  H   UNL d   1       5.475  13.031  33.000 -0.21 +0.13    +0.167 HD
DOCKED: ENDBRANCH  32  34
DOCKED: ENDBRANCH  31  32
DOCKED: ENDBRANCH  30  31
DOCKED: ENDBRANCH   6  30
DOCKED: BRANCH  22  36
DOCKED: ATOM     36  C   UNL d   1       9.086  10.169  33.437 -0.36 +0.03    +0.052 C 
DOCKED: BRANCH  36  37
DOCKED: ATOM     37  C   UNL d   1      10.117   9.161  33.921 -0.34 +0.07    +0.115 C 
DOCKED: BRANCH  37  38
DOCKED: ATOM     38  C   UNL d   1      11.125   9.814  34.824 -0.01 +0.18    +0.139 C 
DOCKED: ATOM     39  O   UNL d   1      11.049  11.004  35.090 -0.16 -1.18    -0.650 OA
DOCKED: BRANCH  38  40
DOCKED: ATOM     40  O   UNL d   1      12.129   9.086  35.346 +0.10 -1.20    -0.776 OA
DOCKED: ATOM     41  H   UNL d   1      11.917   8.308  35.880 +0.07 +0.16    +0.167 HD
DOCKED: ENDBRANCH  38  40
DOCKED: ENDBRANCH  37  38
DOCKED: ENDBRANCH  36  37
DOCKED: ENDBRANCH  22  36
DOCKED: BRANCH  12  42
DOCKED: ATOM     42  C   UNL d   1       5.765  13.193  23.137 -0.48 +0.00    +0.004 C 
DOCKED: ATOM     43  C   UNL d   1       6.620  13.042  22.117 -0.50 +0.00    +0.012 C 
DOCKED: ENDBRANCH  12  42
DOCKED: BRANCH  17  44
DOCKED: ATOM     44  C   UNL d   1       9.671   6.931  26.177 -0.43 +0.00    +0.004 C 
DOCKED: ATOM     45  C   UNL d   1       9.008   5.822  26.519 -0.70 +0.00    +0.012 C 
DOCKED: ENDBRANCH  17  44
DOCKED: TORSDOF 10
DOCKED: TER
DOCKED: ENDMDL
________________________________________________________________________________


	BEGINNING GENETIC ALGORITHM DOCKING 38 of 100
Run: 38 Seed: 1979250742 2074434163 [ Run 38 of 100 GA/GALS ]
Beginning LAMARCKIAN GENETIC ALGORITHM (LGA), with a maximum of 25000000 energy evaluations.

Final-Value: -17.331


	FINAL GENETIC ALGORITHM DOCKED STATE
	_______________________________________________


Detailed state:  trans 7.199 13.313 30.822 quatxyzw 0.298650 -0.638543 0.044222 0.707895 center -0.174 -0.001 -0.047 ntor 10 172.7549 -179.9163 65.2709 -129.7556 -99.5541 -48.2972 168.9212 73.1459 174.1428 144.1947
State:	  7.199  13.313  30.822   0.423 -0.904  0.063 89.872    172.75 -179.92   65.27 -129.76  -99.55  -48.30  168.92   73.15  174.14  144.19

DOCKED: MODEL       38
DOCKED: USER    Run = 38
DOCKED: USER    DPF = D:/Protein_go_brrr/autodock/final/1A3N/heme_Fe/dock.dpf
DOCKED: USER  
DOCKED: USER    Estimated Free Energy of Binding    =  -12.79 kcal/mol  [=(1)+(2)+(3)-(4)]
DOCKED: USER    Estimated Inhibition Constant, Ki   =  423.01 pM (picomolar)  [Temperature = 298.15 K]
DOCKED: USER    
DOCKED: USER    (1) Final Intermolecular Energy     =  -15.77 kcal/mol
DOCKED: USER        vdW + Hbond + desolv Energy     =  -13.23 kcal/mol
DOCKED: USER        Electrostatic Energy            =   -2.54 kcal/mol
DOCKED: USER    (2) Final Total Internal Energy     =   -1.56 kcal/mol
DOCKED: USER    (3) Torsional Free Energy           =   +2.98 kcal/mol
DOCKED: USER    (4) Unbound System's Energy  [=(2)] =   -1.56 kcal/mol
DOCKED: USER    
DOCKED: USER    
DOCKED: USER    NEWDPF move heme_Fe_opt.pdbqt
DOCKED: USER    NEWDPF about -0.174000 -0.001000 -0.047000
DOCKED: USER    NEWDPF tran0 7.199141 13.313004 30.821940
DOCKED: USER    NEWDPF quaternion0 0.298650 -0.638543 0.044222 0.707895
DOCKED: USER    NEWDPF axisangle0 0.422826 -0.904045 0.062609 89.872183
DOCKED: USER    NEWDPF quat0 0.422826 -0.904045 0.062609 89.872183
DOCKED: USER    NEWDPF dihe0 172.75 -179.92 65.27 -129.76 -99.55 -48.30 168.92 73.15 174.14 144.19 
DOCKED: USER  keepresnum = 1 
DOCKED: USER  
DOCKED: REMARK  10 active torsions:
DOCKED: REMARK  status: ('A' for Active; 'I' for Inactive)
DOCKED: REMARK    1  A    between atoms: C_6  and  C_10 
DOCKED: REMARK    2  A    between atoms: C_10  and  C_11 
DOCKED: REMARK    3  A    between atoms: C_11  and  C_12 
DOCKED: REMARK    4  A    between atoms: C_12  and  O_14 
DOCKED: REMARK    5  A    between atoms: C_17  and  C_20 
DOCKED: REMARK    6  A    between atoms: C_24  and  C_27 
DOCKED: REMARK    7  A    between atoms: C_31  and  C_34 
DOCKED: REMARK    8  A    between atoms: C_34  and  C_35 
DOCKED: REMARK    9  A    between atoms: C_35  and  C_36 
DOCKED: REMARK   10  A    between atoms: C_36  and  O_38 
DOCKED: USER                              x       y       z     vdW  Elec       q    Type
DOCKED: USER                           _______ _______ _______ _____ _____    ______ ____
DOCKED: ROOT
DOCKED: ATOM      1  C   UNL d   1       7.355  14.339  32.592 -0.29 +0.04    +0.064 C 
DOCKED: ATOM      2  C   UNL d   1       8.894   9.928  30.979 -0.37 +0.02    +0.064 A 
DOCKED: ATOM      3  C   UNL d   1       7.990  11.335  26.477 -0.37 +0.00    +0.064 C 
DOCKED: ATOM      4  C   UNL d   1       6.398  15.573  28.025 -0.50 +0.01    +0.064 C 
DOCKED: ATOM      5  C   UNL d   1       7.794  12.937  32.562 -0.22 +0.03    +0.066 A 
DOCKED: ATOM      6  C   UNL d   1       8.040  12.162  33.683 -0.23 -0.01    -0.021 A 
DOCKED: ATOM      7  C   UNL d   1       8.471  10.938  33.234 -0.31 -0.01    -0.025 A 
DOCKED: ATOM      8  C   UNL d   1       8.471  11.013  31.855 -0.31 +0.02    +0.066 A 
DOCKED: ATOM      9  C   UNL d   1       8.840   9.764  34.089 -0.35 +0.03    +0.051 C 
DOCKED: ATOM     10  C   UNL d   1       8.850   9.954  29.646 -0.38 +0.02    +0.066 A 
DOCKED: ATOM     11  C   UNL d   1       9.369   8.944  28.833 -0.41 -0.00    -0.021 A 
DOCKED: ATOM     12  C   UNL d   1       9.136   9.334  27.530 -0.43 +0.00    +0.000 A 
DOCKED: ATOM     13  C   UNL d   1       8.487  10.578  27.615 -0.34 +0.01    +0.070 A 
DOCKED: ATOM     14  C   UNL d   1      10.113   7.700  29.275 -0.46 +0.01    +0.052 C 
DOCKED: ATOM     15  C   UNL d   1       7.412  12.557  26.551 -0.34 +0.00    +0.066 A 
DOCKED: ATOM     16  C   UNL d   1       6.861  13.204  25.452 -0.38 -0.00    -0.021 A 
DOCKED: ATOM     17  C   UNL d   1       6.404  14.427  25.896 -0.42 +0.00    +0.000 A 
DOCKED: ATOM     18  C   UNL d   1       6.692  14.501  27.257 -0.37 +0.01    +0.070 A 
DOCKED: ATOM     19  C   UNL d   1       6.787  12.704  24.035 -0.40 +0.00    +0.052 C 
DOCKED: ATOM     20  C   UNL d   1       6.630  15.661  29.471 -0.38 +0.01    +0.066 A 
DOCKED: ATOM     21  C   UNL d   1       6.517  16.828  30.240 -0.33 -0.01    -0.025 A 
DOCKED: ATOM     22  C   UNL d   1       6.782  16.451  31.540 -0.27 -0.01    -0.021 A 
DOCKED: ATOM     23  C   UNL d   1       7.050  15.077  31.513 -0.28 +0.03    +0.066 A 
DOCKED: ATOM     24  C   UNL d   1       6.184  18.230  29.783 -0.36 +0.01    +0.051 C 
DOCKED: ATOM     25  N   UNL d   1       8.049  12.228  31.449 -0.05 -0.09    -0.248 N 
DOCKED: ATOM     26  N   UNL d   1       8.321  10.961  28.905 -0.22 -0.05    -0.248 N 
DOCKED: ATOM     27  N   UNL d   1       7.272  13.334  27.670 -0.23 -0.03    -0.248 N 
DOCKED: ATOM     28  N   UNL d   1       7.000  14.610  30.242 -0.21 -0.07    -0.248 N 
DOCKED: ATOM     29 FE   UNL d   1       7.659  12.787  29.573 -0.08 +0.00    +0.000 Fe
DOCKED: ENDROOT
DOCKED: BRANCH   6  30
DOCKED: ATOM     30  C   UNL d   1       7.856  12.554  35.109 -0.17 +0.04    +0.052 C 
DOCKED: BRANCH  30  31
DOCKED: ATOM     31  C   UNL d   1       9.173  13.028  35.714 -0.11 +0.09    +0.115 C 
DOCKED: BRANCH  31  32
DOCKED: ATOM     32  C   UNL d   1      10.318  12.712  34.792 -0.18 +0.14    +0.139 C 
DOCKED: ATOM     33  O   UNL d   1      11.024  11.733  34.988 -0.39 -1.22    -0.650 OA
DOCKED: BRANCH  32  34
DOCKED: ATOM     34  O   UNL d   1      10.577  13.508  33.741 -0.01 -0.62    -0.776 OA
DOCKED: ATOM     35  H   UNL d   1       9.957  14.219  33.526 +0.06 +0.10    +0.167 HD
DOCKED: ENDBRANCH  32  34
DOCKED: ENDBRANCH  31  32
DOCKED: ENDBRANCH  30  31
DOCKED: ENDBRANCH   6  30
DOCKED: BRANCH  22  36
DOCKED: ATOM     36  C   UNL d   1       6.823  17.371  32.732 -0.20 +0.03    +0.052 C 
DOCKED: BRANCH  36  37
DOCKED: ATOM     37  C   UNL d   1       8.212  17.348  33.351 -0.16 +0.06    +0.115 C 
DOCKED: BRANCH  37  38
DOCKED: ATOM     38  C   UNL d   1       8.207  16.608  34.659 -0.12 +0.11    +0.139 C 
DOCKED: ATOM     39  O   UNL d   1       7.364  16.849  35.510 -0.62 -0.84    -0.650 OA
DOCKED: BRANCH  38  40
DOCKED: ATOM     40  O   UNL d   1       9.140  15.670  34.904 +0.03 -0.53    -0.776 OA
DOCKED: ATOM     41  H   UNL d   1       9.805  15.482  34.227 +0.05 +0.10    +0.167 HD
DOCKED: ENDBRANCH  38  40
DOCKED: ENDBRANCH  37  38
DOCKED: ENDBRANCH  36  37
DOCKED: ENDBRANCH  22  36
DOCKED: BRANCH  12  42
DOCKED: ATOM     42  C   UNL d   1       9.537   8.554  26.318 -0.49 +0.00    +0.004 C 
DOCKED: ATOM     43  C   UNL d   1       8.615   8.012  25.511 -0.53 +0.00    +0.012 C 
DOCKED: ENDBRANCH  12  42
DOCKED: BRANCH  17  44
DOCKED: ATOM     44  C   UNL d   1       5.718  15.451  25.075 -0.55 +0.00    +0.004 C 
DOCKED: ATOM     45  C   UNL d   1       6.405  16.217  24.222 -0.55 +0.00    +0.012 C 
DOCKED: ENDBRANCH  17  44
DOCKED: TORSDOF 10
DOCKED: TER
DOCKED: ENDMDL
________________________________________________________________________________


	BEGINNING GENETIC ALGORITHM DOCKING 39 of 100
Run: 39 Seed: 1293348092 2109858773 [ Run 39 of 100 GA/GALS ]
Beginning LAMARCKIAN GENETIC ALGORITHM (LGA), with a maximum of 25000000 energy evaluations.

Final-Value: -16.502


	FINAL GENETIC ALGORITHM DOCKED STATE
	_______________________________________________


Detailed state:  trans 24.668 7.781 -6.086 quatxyzw 0.111432 0.709333 0.376383 0.585462 center -0.174 -0.001 -0.047 ntor 10 -70.5000 -62.5259 -172.2993 -132.3731 1.1373 132.2831 -57.1485 61.7232 -170.1991 179.0831
State:	 24.668   7.781  -6.086   0.137  0.875  0.464 108.329    -70.50  -62.53 -172.30 -132.37    1.14  132.28  -57.15   61.72 -170.20  179.08

DOCKED: MODEL       39
DOCKED: USER    Run = 39
DOCKED: USER    DPF = D:/Protein_go_brrr/autodock/final/1A3N/heme_Fe/dock.dpf
DOCKED: USER  
DOCKED: USER    Estimated Free Energy of Binding    =  -10.89 kcal/mol  [=(1)+(2)+(3)-(4)]
DOCKED: USER    Estimated Inhibition Constant, Ki   =   10.36 nM (nanomolar)  [Temperature = 298.15 K]
DOCKED: USER    
DOCKED: USER    (1) Final Intermolecular Energy     =  -13.88 kcal/mol
DOCKED: USER        vdW + Hbond + desolv Energy     =  -12.24 kcal/mol
DOCKED: USER        Electrostatic Energy            =   -1.64 kcal/mol
DOCKED: USER    (2) Final Total Internal Energy     =   -2.63 kcal/mol
DOCKED: USER    (3) Torsional Free Energy           =   +2.98 kcal/mol
DOCKED: USER    (4) Unbound System's Energy  [=(2)] =   -2.63 kcal/mol
DOCKED: USER    
DOCKED: USER    
DOCKED: USER    NEWDPF move heme_Fe_opt.pdbqt
DOCKED: USER    NEWDPF about -0.174000 -0.001000 -0.047000
DOCKED: USER    NEWDPF tran0 24.668149 7.781105 -6.085501
DOCKED: USER    NEWDPF quaternion0 0.111432 0.709333 0.376383 0.585462
DOCKED: USER    NEWDPF axisangle0 0.137452 0.874964 0.464269 108.328715
DOCKED: USER    NEWDPF quat0 0.137452 0.874964 0.464269 108.328715
DOCKED: USER    NEWDPF dihe0 -70.50 -62.53 -172.30 -132.37 1.14 132.28 -57.15 61.72 -170.20 179.08 
DOCKED: USER  keepresnum = 1 
DOCKED: USER  
DOCKED: REMARK  10 active torsions:
DOCKED: REMARK  status: ('A' for Active; 'I' for Inactive)
DOCKED: REMARK    1  A    between atoms: C_6  and  C_10 
DOCKED: REMARK    2  A    between atoms: C_10  and  C_11 
DOCKED: REMARK    3  A    between atoms: C_11  and  C_12 
DOCKED: REMARK    4  A    between atoms: C_12  and  O_14 
DOCKED: REMARK    5  A    between atoms: C_17  and  C_20 
DOCKED: REMARK    6  A    between atoms: C_24  and  C_27 
DOCKED: REMARK    7  A    between atoms: C_31  and  C_34 
DOCKED: REMARK    8  A    between atoms: C_34  and  C_35 
DOCKED: REMARK    9  A    between atoms: C_35  and  C_36 
DOCKED: REMARK   10  A    between atoms: C_36  and  O_38 
DOCKED: USER                              x       y       z     vdW  Elec       q    Type
DOCKED: USER                           _______ _______ _______ _____ _____    ______ ____
DOCKED: ROOT
DOCKED: ATOM      1  C   UNL d   1      24.809   8.654  -7.937 -0.31 +0.05    +0.064 C 
DOCKED: ATOM      2  C   UNL d   1      21.905   5.192  -5.933 -0.32 +0.01    +0.064 A 
DOCKED: ATOM      3  C   UNL d   1      23.407   6.552  -1.579 -0.38 +0.00    +0.064 C 
DOCKED: ATOM      4  C   UNL d   1      26.303   9.838  -3.503 -0.49 +0.01    +0.064 C 
DOCKED: ATOM      5  C   UNL d   1      23.916   7.497  -7.782 -0.25 +0.04    +0.066 A 
DOCKED: ATOM      6  C   UNL d   1      23.376   6.769  -8.829 -0.23 -0.01    -0.021 A 
DOCKED: ATOM      7  C   UNL d   1      22.566   5.810  -8.271 -0.26 -0.01    -0.025 A 
DOCKED: ATOM      8  C   UNL d   1      22.644   5.990  -6.904 -0.23 +0.02    +0.066 A 
DOCKED: ATOM      9  C   UNL d   1      21.783   4.773  -9.017 -0.28 +0.02    +0.051 C 
DOCKED: ATOM     10  C   UNL d   1      22.006   5.308  -4.608 -0.36 +0.01    +0.066 A 
DOCKED: ATOM     11  C   UNL d   1      21.202   4.608  -3.706 -0.42 -0.00    -0.021 A 
DOCKED: ATOM     12  C   UNL d   1      21.603   4.995  -2.443 -0.41 +0.00    +0.000 A 
DOCKED: ATOM     13  C   UNL d   1      22.637   5.926  -2.642 -0.33 +0.00    +0.070 A 
DOCKED: ATOM     14  C   UNL d   1      20.059   3.668  -4.031 -0.43 +0.01    +0.052 C 
DOCKED: ATOM     15  C   UNL d   1      24.368   7.488  -1.764 -0.35 +0.00    +0.066 A 
DOCKED: ATOM     16  C   UNL d   1      25.149   7.988  -0.730 -0.36 -0.00    -0.021 A 
DOCKED: ATOM     17  C   UNL d   1      25.983   8.939  -1.282 -0.42 +0.00    +0.000 A 
DOCKED: ATOM     18  C   UNL d   1      25.687   8.999  -2.642 -0.38 +0.01    +0.070 A 
DOCKED: ATOM     19  C   UNL d   1      25.098   7.608   0.726 -0.40 +0.00    +0.052 C 
DOCKED: ATOM     20  C   UNL d   1      26.062   9.886  -4.950 -0.38 +0.01    +0.066 A 
DOCKED: ATOM     21  C   UNL d   1      26.541  10.877  -5.818 -0.34 -0.01    -0.025 A 
DOCKED: ATOM     22  C   UNL d   1      26.114  10.513  -7.079 -0.29 -0.01    -0.021 A 
DOCKED: ATOM     23  C   UNL d   1      25.390   9.324  -6.930 -0.31 +0.03    +0.066 A 
DOCKED: ATOM     24  C   UNL d   1      27.354  12.107  -5.489 -0.36 +0.01    +0.051 C 
DOCKED: ATOM     25  N   UNL d   1      23.473   7.011  -6.609 -0.12 -0.08    -0.248 N 
DOCKED: ATOM     26  N   UNL d   1      22.877   6.124  -3.962 -0.21 -0.03    -0.248 N 
DOCKED: ATOM     27  N   UNL d   1      24.725   8.077  -2.947 -0.24 -0.02    -0.248 N 
DOCKED: ATOM     28  N   UNL d   1      25.324   8.970  -5.623 -0.23 -0.07    -0.248 N 
DOCKED: ATOM     29 FE   UNL d   1      24.102   7.548  -4.792 -0.08 +0.00    +0.000 Fe
DOCKED: ENDROOT
DOCKED: BRANCH   6  30
DOCKED: ATOM     30  C   UNL d   1      23.630   6.958 -10.285 -0.16 +0.05    +0.052 C 
DOCKED: BRANCH  30  31
DOCKED: ATOM     31  C   UNL d   1      22.782   8.099 -10.838 -0.12 +0.08    +0.115 C 
DOCKED: BRANCH  31  32
DOCKED: ATOM     32  C   UNL d   1      23.657   9.145 -11.472 -0.10 +0.12    +0.139 C 
DOCKED: ATOM     33  O   UNL d   1      24.871   9.003 -11.510 -0.10 -1.19    -0.650 OA
DOCKED: BRANCH  32  34
DOCKED: ATOM     34  O   UNL d   1      23.108  10.250 -12.004 +0.03 -0.39    -0.776 OA
DOCKED: ATOM     35  H   UNL d   1      23.239  11.100 -11.560 +0.02 +0.07    +0.167 HD
DOCKED: ENDBRANCH  32  34
DOCKED: ENDBRANCH  31  32
DOCKED: ENDBRANCH  30  31
DOCKED: ENDBRANCH   6  30
DOCKED: BRANCH  22  36
DOCKED: ATOM     36  C   UNL d   1      26.349  11.292  -8.346 -0.20 +0.02    +0.052 C 
DOCKED: BRANCH  36  37
DOCKED: ATOM     37  C   UNL d   1      25.287  12.372  -8.488 -0.16 +0.04    +0.115 C 
DOCKED: BRANCH  37  38
DOCKED: ATOM     38  C   UNL d   1      24.479  12.173  -9.739 -0.12 +0.05    +0.139 C 
DOCKED: ATOM     39  O   UNL d   1      23.259  12.221  -9.709 +0.01 -0.21    -0.650 OA
DOCKED: BRANCH  38  40
DOCKED: ATOM     40  O   UNL d   1      25.100  11.935 -10.908 +0.02 -0.37    -0.776 OA
DOCKED: ATOM     41  H   UNL d   1      24.947  11.093 -11.359 +0.02 +0.11    +0.167 HD
DOCKED: ENDBRANCH  38  40
DOCKED: ENDBRANCH  37  38
DOCKED: ENDBRANCH  36  37
DOCKED: ENDBRANCH  22  36
DOCKED: BRANCH  12  42
DOCKED: ATOM     42  C   UNL d   1      21.004   4.501  -1.165 -0.48 +0.00    +0.004 C 
DOCKED: ATOM     43  C   UNL d   1      20.514   5.357  -0.258 -0.55 +0.00    +0.012 C 
DOCKED: ENDBRANCH  12  42
DOCKED: BRANCH  17  44
DOCKED: ATOM     44  C   UNL d   1      27.009   9.723  -0.559 -0.58 +0.00    +0.004 C 
DOCKED: ATOM     45  C   UNL d   1      26.665  10.777   0.188 -0.61 +0.00    +0.012 C 
DOCKED: ENDBRANCH  17  44
DOCKED: TORSDOF 10
DOCKED: TER
DOCKED: ENDMDL
________________________________________________________________________________


	BEGINNING GENETIC ALGORITHM DOCKING 40 of 100
Run: 40 Seed: 1988148098 1519992332 [ Run 40 of 100 GA/GALS ]
Beginning LAMARCKIAN GENETIC ALGORITHM (LGA), with a maximum of 25000000 energy evaluations.

Final-Value: -18.634


	FINAL GENETIC ALGORITHM DOCKED STATE
	_______________________________________________


Detailed state:  trans 8.156 13.083 29.332 quatxyzw -0.630733 -0.010540 0.741820 0.227525 center -0.174 -0.001 -0.047 ntor 10 51.4663 -87.5253 70.0614 -128.1078 -19.1307 170.0285 48.3808 51.6158 -44.5275 172.1982
State:	  8.156  13.083  29.332  -0.648 -0.011  0.762 153.697     51.47  -87.53   70.06 -128.11  -19.13  170.03   48.38   51.62  -44.53  172.20

DOCKED: MODEL       40
DOCKED: USER    Run = 40
DOCKED: USER    DPF = D:/Protein_go_brrr/autodock/final/1A3N/heme_Fe/dock.dpf
DOCKED: USER  
DOCKED: USER    Estimated Free Energy of Binding    =  -13.68 kcal/mol  [=(1)+(2)+(3)-(4)]
DOCKED: USER    Estimated Inhibition Constant, Ki   =   94.11 pM (picomolar)  [Temperature = 298.15 K]
DOCKED: USER    
DOCKED: USER    (1) Final Intermolecular Energy     =  -16.66 kcal/mol
DOCKED: USER        vdW + Hbond + desolv Energy     =  -13.89 kcal/mol
DOCKED: USER        Electrostatic Energy            =   -2.78 kcal/mol
DOCKED: USER    (2) Final Total Internal Energy     =   -1.97 kcal/mol
DOCKED: USER    (3) Torsional Free Energy           =   +2.98 kcal/mol
DOCKED: USER    (4) Unbound System's Energy  [=(2)] =   -1.97 kcal/mol
DOCKED: USER    
DOCKED: USER    
DOCKED: USER    NEWDPF move heme_Fe_opt.pdbqt
DOCKED: USER    NEWDPF about -0.174000 -0.001000 -0.047000
DOCKED: USER    NEWDPF tran0 8.156118 13.082603 29.332116
DOCKED: USER    NEWDPF quaternion0 -0.630733 -0.010540 0.741820 0.227525
DOCKED: USER    NEWDPF axisangle0 -0.647722 -0.010824 0.761800 153.697145
DOCKED: USER    NEWDPF quat0 -0.647722 -0.010824 0.761800 153.697145
DOCKED: USER    NEWDPF dihe0 51.47 -87.53 70.06 -128.11 -19.13 170.03 48.38 51.62 -44.53 172.20 
DOCKED: USER  keepresnum = 1 
DOCKED: USER  
DOCKED: REMARK  10 active torsions:
DOCKED: REMARK  status: ('A' for Active; 'I' for Inactive)
DOCKED: REMARK    1  A    between atoms: C_6  and  C_10 
DOCKED: REMARK    2  A    between atoms: C_10  and  C_11 
DOCKED: REMARK    3  A    between atoms: C_11  and  C_12 
DOCKED: REMARK    4  A    between atoms: C_12  and  O_14 
DOCKED: REMARK    5  A    between atoms: C_17  and  C_20 
DOCKED: REMARK    6  A    between atoms: C_24  and  C_27 
DOCKED: REMARK    7  A    between atoms: C_31  and  C_34 
DOCKED: REMARK    8  A    between atoms: C_34  and  C_35 
DOCKED: REMARK    9  A    between atoms: C_35  and  C_36 
DOCKED: REMARK   10  A    between atoms: C_36  and  O_38 
DOCKED: USER                              x       y       z     vdW  Elec       q    Type
DOCKED: USER                           _______ _______ _______ _____ _____    ______ ____
DOCKED: ROOT
DOCKED: ATOM      1  C   UNL d   1       7.840  13.617  31.288 -0.27 +0.02    +0.064 C 
DOCKED: ATOM      2  C   UNL d   1       6.486  15.471  26.911 -0.44 +0.01    +0.064 A 
DOCKED: ATOM      3  C   UNL d   1       7.757  11.329  24.840 -0.38 +0.00    +0.064 C 
DOCKED: ATOM      4  C   UNL d   1       9.172   9.552  29.051 -0.45 +0.01    +0.064 C 
DOCKED: ATOM      5  C   UNL d   1       7.419  14.553  30.236 -0.31 +0.02    +0.066 A 
DOCKED: ATOM      6  C   UNL d   1       7.085  15.881  30.447 -0.33 -0.01    -0.021 A 
DOCKED: ATOM      7  C   UNL d   1       6.705  16.394  29.232 -0.36 -0.00    -0.025 A 
DOCKED: ATOM      8  C   UNL d   1       6.823  15.358  28.325 -0.40 +0.01    +0.066 A 
DOCKED: ATOM      9  C   UNL d   1       6.275  17.804  28.964 -0.33 +0.01    +0.051 C 
DOCKED: ATOM     10  C   UNL d   1       6.644  14.506  26.004 -0.39 +0.01    +0.066 A 
DOCKED: ATOM     11  C   UNL d   1       6.205  14.605  24.682 -0.43 -0.00    -0.021 A 
DOCKED: ATOM     12  C   UNL d   1       6.545  13.416  24.067 -0.39 +0.00    +0.000 A 
DOCKED: ATOM     13  C   UNL d   1       7.172  12.642  25.059 -0.35 +0.00    +0.070 A 
DOCKED: ATOM     14  C   UNL d   1       5.438  15.750  24.051 -0.59 +0.00    +0.052 C 
DOCKED: ATOM     15  C   UNL d   1       8.316  10.558  25.803 -0.35 +0.00    +0.066 A 
DOCKED: ATOM     16  C   UNL d   1       8.953   9.353  25.536 -0.44 -0.00    -0.021 A 
DOCKED: ATOM     17  C   UNL d   1       9.359   8.837  26.749 -0.42 +0.00    +0.000 A 
DOCKED: ATOM     18  C   UNL d   1       8.955   9.739  27.730 -0.38 +0.01    +0.070 A 
DOCKED: ATOM     19  C   UNL d   1       9.152   8.697  24.196 -0.61 +0.00    +0.052 C 
DOCKED: ATOM     20  C   UNL d   1       8.817  10.508  30.106 -0.35 +0.02    +0.066 A 
DOCKED: ATOM     21  C   UNL d   1       8.852  10.245  31.483 -0.38 -0.01    -0.025 A 
DOCKED: ATOM     22  C   UNL d   1       8.481  11.421  32.102 -0.31 -0.01    -0.021 A 
DOCKED: ATOM     23  C   UNL d   1       8.229  12.348  31.084 +0.03 +0.02    +0.066 A 
DOCKED: ATOM     24  C   UNL d   1       9.210   8.958  32.188 -0.44 +0.02    +0.051 C 
DOCKED: ATOM     25  N   UNL d   1       7.266  14.243  28.937 -0.23 -0.05    -0.248 N 
DOCKED: ATOM     26  N   UNL d   1       7.225  13.302  26.242 -0.23 -0.02    -0.248 N 
DOCKED: ATOM     27  N   UNL d   1       8.353  10.819  27.147 -0.23 -0.02    -0.248 N 
DOCKED: ATOM     28  N   UNL d   1       8.392  11.773  29.868 -0.12 -0.06    -0.248 N 
DOCKED: ATOM     29 FE   UNL d   1       7.809  12.536  28.056 -0.08 +0.00    +0.000 Fe
DOCKED: ENDROOT
DOCKED: BRANCH   6  30
DOCKED: ATOM     30  C   UNL d   1       7.143  16.632  31.733 -0.28 +0.02    +0.052 C 
DOCKED: BRANCH  30  31
DOCKED: ATOM     31  C   UNL d   1       8.446  16.342  32.470 -0.19 +0.05    +0.115 C 
DOCKED: BRANCH  31  32
DOCKED: ATOM     32  C   UNL d   1       8.172  16.003  33.909 -0.16 +0.11    +0.139 C 
DOCKED: ATOM     33  O   UNL d   1       7.112  16.317  34.432 -0.43 -0.98    -0.650 OA
DOCKED: BRANCH  32  34
DOCKED: ATOM     34  O   UNL d   1       9.095  15.351  34.636 +0.04 -0.54    -0.776 OA
DOCKED: ATOM     35  H   UNL d   1       8.833  14.556  35.122 +0.04 +0.14    +0.167 HD
DOCKED: ENDBRANCH  32  34
DOCKED: ENDBRANCH  31  32
DOCKED: ENDBRANCH  30  31
DOCKED: ENDBRANCH   6  30
DOCKED: BRANCH  22  36
DOCKED: ATOM     36  C   UNL d   1       8.330  11.624  33.586 -0.28 +0.03    +0.052 C 
DOCKED: BRANCH  36  37
DOCKED: ATOM     37  C   UNL d   1       6.899  11.319  34.003 -0.33 +0.07    +0.115 C 
DOCKED: BRANCH  37  38
DOCKED: ATOM     38  C   UNL d   1       6.326  12.441  34.823 -0.25 +0.16    +0.139 C 
DOCKED: ATOM     39  O   UNL d   1       5.136  12.469  35.098 -0.50 -1.03    -0.650 OA
DOCKED: BRANCH  38  40
DOCKED: ATOM     40  O   UNL d   1       7.126  13.430  35.259 +0.04 -1.05    -0.776 OA
DOCKED: ATOM     41  H   UNL d   1       7.225  14.227  34.719 +0.04 +0.25    +0.167 HD
DOCKED: ENDBRANCH  38  40
DOCKED: ENDBRANCH  37  38
DOCKED: ENDBRANCH  36  37
DOCKED: ENDBRANCH  22  36
DOCKED: BRANCH  12  42
DOCKED: ATOM     42  C   UNL d   1       6.256  13.077  22.640 -0.48 +0.00    +0.004 C 
DOCKED: ATOM     43  C   UNL d   1       7.250  12.838  21.773 -0.53 +0.00    +0.012 C 
DOCKED: ENDBRANCH  12  42
DOCKED: BRANCH  17  44
DOCKED: ATOM     44  C   UNL d   1      10.102   7.573  26.954 -0.04 +0.00    +0.004 C 
DOCKED: ATOM     45  C   UNL d   1       9.491   6.391  26.829 -0.64 +0.00    +0.012 C 
DOCKED: ENDBRANCH  17  44
DOCKED: TORSDOF 10
DOCKED: TER
DOCKED: ENDMDL
________________________________________________________________________________


	BEGINNING GENETIC ALGORITHM DOCKING 41 of 100
Run: 41 Seed: 1321018423 835779789 [ Run 41 of 100 GA/GALS ]
Beginning LAMARCKIAN GENETIC ALGORITHM (LGA), with a maximum of 25000000 energy evaluations.

Final-Value: -18.189


	FINAL GENETIC ALGORITHM DOCKED STATE
	_______________________________________________


Detailed state:  trans 23.410 -6.632 32.236 quatxyzw 0.051595 -0.652407 -0.108736 0.748251 center -0.174 -0.001 -0.047 ntor 10 -131.7467 5.2801 87.2541 -133.3860 94.5282 175.2038 -30.0668 73.9786 151.8005 157.6375
State:	 23.410  -6.632  32.236   0.078 -0.983 -0.164 83.122   -131.75    5.28   87.25 -133.39   94.53  175.20  -30.07   73.98  151.80  157.64

DOCKED: MODEL       41
DOCKED: USER    Run = 41
DOCKED: USER    DPF = D:/Protein_go_brrr/autodock/final/1A3N/heme_Fe/dock.dpf
DOCKED: USER  
DOCKED: USER    Estimated Free Energy of Binding    =  -13.18 kcal/mol  [=(1)+(2)+(3)-(4)]
DOCKED: USER    Estimated Inhibition Constant, Ki   =  219.55 pM (picomolar)  [Temperature = 298.15 K]
DOCKED: USER    
DOCKED: USER    (1) Final Intermolecular Energy     =  -16.16 kcal/mol
DOCKED: USER        vdW + Hbond + desolv Energy     =  -13.78 kcal/mol
DOCKED: USER        Electrostatic Energy            =   -2.38 kcal/mol
DOCKED: USER    (2) Final Total Internal Energy     =   -2.03 kcal/mol
DOCKED: USER    (3) Torsional Free Energy           =   +2.98 kcal/mol
DOCKED: USER    (4) Unbound System's Energy  [=(2)] =   -2.03 kcal/mol
DOCKED: USER    
DOCKED: USER    
DOCKED: USER    NEWDPF move heme_Fe_opt.pdbqt
DOCKED: USER    NEWDPF about -0.174000 -0.001000 -0.047000
DOCKED: USER    NEWDPF tran0 23.410196 -6.632402 32.235970
DOCKED: USER    NEWDPF quaternion0 0.051595 -0.652407 -0.108736 0.748251
DOCKED: USER    NEWDPF axisangle0 0.077771 -0.983406 -0.163904 83.121867
DOCKED: USER    NEWDPF quat0 0.077771 -0.983406 -0.163904 83.121867
DOCKED: USER    NEWDPF dihe0 -131.75 5.28 87.25 -133.39 94.53 175.20 -30.07 73.98 151.80 157.64 
DOCKED: USER  keepresnum = 1 
DOCKED: USER  
DOCKED: REMARK  10 active torsions:
DOCKED: REMARK  status: ('A' for Active; 'I' for Inactive)
DOCKED: REMARK    1  A    between atoms: C_6  and  C_10 
DOCKED: REMARK    2  A    between atoms: C_10  and  C_11 
DOCKED: REMARK    3  A    between atoms: C_11  and  C_12 
DOCKED: REMARK    4  A    between atoms: C_12  and  O_14 
DOCKED: REMARK    5  A    between atoms: C_17  and  C_20 
DOCKED: REMARK    6  A    between atoms: C_24  and  C_27 
DOCKED: REMARK    7  A    between atoms: C_31  and  C_34 
DOCKED: REMARK    8  A    between atoms: C_34  and  C_35 
DOCKED: REMARK    9  A    between atoms: C_35  and  C_36 
DOCKED: REMARK   10  A    between atoms: C_36  and  O_38 
DOCKED: USER                              x       y       z     vdW  Elec       q    Type
DOCKED: USER                           _______ _______ _______ _____ _____    ______ ____
DOCKED: ROOT
DOCKED: ATOM      1  C   UNL d   1      23.689  -6.762  34.265 -0.32 +0.01    +0.064 C 
DOCKED: ATOM      2  C   UNL d   1      24.724  -9.685  30.415 -0.41 +0.00    +0.064 A 
DOCKED: ATOM      3  C   UNL d   1      23.951  -5.968  27.474 -0.43 +0.00    +0.064 C 
DOCKED: ATOM      4  C   UNL d   1      22.844  -3.149  31.177 -0.51 +0.01    +0.064 C 
DOCKED: ATOM      5  C   UNL d   1      23.971  -7.951  33.448 -0.32 +0.01    +0.066 A 
DOCKED: ATOM      6  C   UNL d   1      24.138  -9.232  33.948 -0.30 -0.00    -0.021 A 
DOCKED: ATOM      7  C   UNL d   1      24.429 -10.042  32.879 -0.32 -0.00    -0.025 A 
DOCKED: ATOM      8  C   UNL d   1      24.428  -9.224  31.766 -0.35 +0.01    +0.066 A 
DOCKED: ATOM      9  C   UNL d   1      24.672 -11.520  32.931 +0.03 +0.01    +0.051 C 
DOCKED: ATOM     10  C   UNL d   1      24.674  -8.928  29.318 -0.39 +0.00    +0.066 A 
DOCKED: ATOM     11  C   UNL d   1      25.074  -9.370  28.054 -0.47 -0.00    -0.021 A 
DOCKED: ATOM     12  C   UNL d   1      24.877  -8.310  27.190 -0.42 +0.00    +0.000 A 
DOCKED: ATOM     13  C   UNL d   1      24.369  -7.265  27.982 -0.37 +0.00    +0.070 A 
DOCKED: ATOM     14  C   UNL d   1      25.679 -10.712  27.698 -0.48 -0.00    +0.052 C 
DOCKED: ATOM     15  C   UNL d   1      23.511  -4.941  28.238 -0.37 +0.00    +0.066 A 
DOCKED: ATOM     16  C   UNL d   1      23.027  -3.752  27.706 -0.46 -0.00    -0.021 A 
DOCKED: ATOM     17  C   UNL d   1      22.711  -2.936  28.773 -0.48 +0.00    +0.000 A 
DOCKED: ATOM     18  C   UNL d   1      23.013  -3.646  29.933 -0.40 +0.01    +0.070 A 
DOCKED: ATOM     19  C   UNL d   1      22.891  -3.385  26.253 -0.51 +0.00    +0.052 C 
DOCKED: ATOM     20  C   UNL d   1      23.094  -3.889  32.420 -0.38 +0.01    +0.066 A 
DOCKED: ATOM     21  C   UNL d   1      23.115  -3.329  33.706 -0.41 -0.00    -0.025 A 
DOCKED: ATOM     22  C   UNL d   1      23.345  -4.378  34.571 -0.30 -0.00    -0.021 A 
DOCKED: ATOM     23  C   UNL d   1      23.460  -5.530  33.784 -0.18 +0.01    +0.066 A 
DOCKED: ATOM     24  C   UNL d   1      22.935  -1.883  34.108 -0.47 +0.00    +0.051 C 
DOCKED: ATOM     25  N   UNL d   1      24.140  -7.954  32.115 -0.20 -0.02    -0.248 N 
DOCKED: ATOM     26  N   UNL d   1      24.254  -7.638  29.280 -0.24 -0.00    -0.248 N 
DOCKED: ATOM     27  N   UNL d   1      23.465  -4.894  29.606 -0.25 -0.02    -0.248 N 
DOCKED: ATOM     28  N   UNL d   1      23.351  -5.218  32.469 -0.22 -0.04    -0.248 N 
DOCKED: ATOM     29 FE   UNL d   1      23.802  -6.426  30.875 -0.09 -0.00    +0.000 Fe
DOCKED: ENDROOT
DOCKED: BRANCH   6  30
DOCKED: ATOM     30  C   UNL d   1      24.007  -9.671  35.367 -0.24 +0.02    +0.052 C 
DOCKED: BRANCH  30  31
DOCKED: ATOM     31  C   UNL d   1      25.322 -10.249  35.877 -0.11 +0.06    +0.115 C 
DOCKED: BRANCH  31  32
DOCKED: ATOM     32  C   UNL d   1      25.460 -10.016  37.356 -0.11 +0.11    +0.139 C 
DOCKED: ATOM     33  O   UNL d   1      25.114 -10.873  38.157 -0.01 -0.32    -0.650 OA
DOCKED: BRANCH  32  34
DOCKED: ATOM     34  O   UNL d   1      25.968  -8.858  37.812 -0.34 -1.48    -0.776 OA
DOCKED: ATOM     35  H   UNL d   1      25.629  -8.024  37.457 +0.02 +0.28    +0.167 HD
DOCKED: ENDBRANCH  32  34
DOCKED: ENDBRANCH  31  32
DOCKED: ENDBRANCH  30  31
DOCKED: ENDBRANCH   6  30
DOCKED: BRANCH  22  36
DOCKED: ATOM     36  C   UNL d   1      23.494  -4.269  36.066 -0.26 +0.01    +0.052 C 
DOCKED: BRANCH  36  37
DOCKED: ATOM     37  C   UNL d   1      24.958  -4.427  36.448 -0.19 +0.04    +0.115 C 
DOCKED: BRANCH  37  38
DOCKED: ATOM     38  C   UNL d   1      25.206  -5.763  37.090 -0.19 +0.09    +0.139 C 
DOCKED: ATOM     39  O   UNL d   1      26.339  -6.114  37.387 -0.05 -0.91    -0.650 OA
DOCKED: BRANCH  38  40
DOCKED: ATOM     40  O   UNL d   1      24.175  -6.590  37.339 +0.04 -0.39    -0.776 OA
DOCKED: ATOM     41  H   UNL d   1      24.339  -7.414  37.818 +0.04 +0.10    +0.167 HD
DOCKED: ENDBRANCH  38  40
DOCKED: ENDBRANCH  37  38
DOCKED: ENDBRANCH  36  37
DOCKED: ENDBRANCH  22  36
DOCKED: BRANCH  12  42
DOCKED: ATOM     42  C   UNL d   1      25.182  -8.331  25.726 -0.52 +0.00    +0.004 C 
DOCKED: ATOM     43  C   UNL d   1      24.314  -7.835  24.834 -0.56 +0.00    +0.012 C 
DOCKED: ENDBRANCH  12  42
DOCKED: BRANCH  17  44
DOCKED: ATOM     44  C   UNL d   1      22.136  -1.574  28.688 -0.60 +0.00    +0.004 C 
DOCKED: ATOM     45  C   UNL d   1      22.912  -0.520  28.416 -0.68 +0.00    +0.012 C 
DOCKED: ENDBRANCH  17  44
DOCKED: TORSDOF 10
DOCKED: TER
DOCKED: ENDMDL
________________________________________________________________________________


	BEGINNING GENETIC ALGORITHM DOCKING 42 of 100
Run: 42 Seed: 712561981 606126809 [ Run 42 of 100 GA/GALS ]
Beginning LAMARCKIAN GENETIC ALGORITHM (LGA), with a maximum of 25000000 energy evaluations.

Final-Value: -16.741


	FINAL GENETIC ALGORITHM DOCKED STATE
	_______________________________________________


Detailed state:  trans 23.900 7.029 -4.354 quatxyzw -0.193554 -0.657979 -0.303860 -0.661263 center -0.174 -0.001 -0.047 ntor 10 174.0426 13.4968 2.0668 -144.8953 -80.0550 52.5166 -2.3703 -96.4678 -10.0960 11.3947
State:	 23.900   7.029  -4.354  -0.258 -0.877 -0.405 -97.207    174.04   13.50    2.07 -144.90  -80.06   52.52   -2.37  -96.47  -10.10   11.39

DOCKED: MODEL       42
DOCKED: USER    Run = 42
DOCKED: USER    DPF = D:/Protein_go_brrr/autodock/final/1A3N/heme_Fe/dock.dpf
DOCKED: USER  
DOCKED: USER    Estimated Free Energy of Binding    =  -11.77 kcal/mol  [=(1)+(2)+(3)-(4)]
DOCKED: USER    Estimated Inhibition Constant, Ki   =    2.34 nM (nanomolar)  [Temperature = 298.15 K]
DOCKED: USER    
DOCKED: USER    (1) Final Intermolecular Energy     =  -14.76 kcal/mol
DOCKED: USER        vdW + Hbond + desolv Energy     =  -12.89 kcal/mol
DOCKED: USER        Electrostatic Energy            =   -1.86 kcal/mol
DOCKED: USER    (2) Final Total Internal Energy     =   -1.98 kcal/mol
DOCKED: USER    (3) Torsional Free Energy           =   +2.98 kcal/mol
DOCKED: USER    (4) Unbound System's Energy  [=(2)] =   -1.98 kcal/mol
DOCKED: USER    
DOCKED: USER    
DOCKED: USER    NEWDPF move heme_Fe_opt.pdbqt
DOCKED: USER    NEWDPF about -0.174000 -0.001000 -0.047000
DOCKED: USER    NEWDPF tran0 23.899942 7.028963 -4.354131
DOCKED: USER    NEWDPF quaternion0 -0.193554 -0.657979 -0.303860 -0.661263
DOCKED: USER    NEWDPF axisangle0 -0.258020 -0.877126 -0.405064 -97.207402
DOCKED: USER    NEWDPF quat0 -0.258020 -0.877126 -0.405064 -97.207402
DOCKED: USER    NEWDPF dihe0 174.04 13.50 2.07 -144.90 -80.06 52.52 -2.37 -96.47 -10.10 11.39 
DOCKED: USER  keepresnum = 1 
DOCKED: USER  
DOCKED: REMARK  10 active torsions:
DOCKED: REMARK  status: ('A' for Active; 'I' for Inactive)
DOCKED: REMARK    1  A    between atoms: C_6  and  C_10 
DOCKED: REMARK    2  A    between atoms: C_10  and  C_11 
DOCKED: REMARK    3  A    between atoms: C_11  and  C_12 
DOCKED: REMARK    4  A    between atoms: C_12  and  O_14 
DOCKED: REMARK    5  A    between atoms: C_17  and  C_20 
DOCKED: REMARK    6  A    between atoms: C_24  and  C_27 
DOCKED: REMARK    7  A    between atoms: C_31  and  C_34 
DOCKED: REMARK    8  A    between atoms: C_34  and  C_35 
DOCKED: REMARK    9  A    between atoms: C_35  and  C_36 
DOCKED: REMARK   10  A    between atoms: C_36  and  O_38 
DOCKED: USER                              x       y       z     vdW  Elec       q    Type
DOCKED: USER                           _______ _______ _______ _____ _____    ______ ____
DOCKED: ROOT
DOCKED: ATOM      1  C   UNL d   1      23.561   7.626  -6.288 -0.32 +0.02    +0.064 C 
DOCKED: ATOM      2  C   UNL d   1      21.339   4.499  -3.170 -0.38 +0.01    +0.064 A 
DOCKED: ATOM      3  C   UNL d   1      23.807   6.465   0.451 -0.24 +0.00    +0.064 C 
DOCKED: ATOM      4  C   UNL d   1      26.046   9.429  -2.564 -0.48 +0.01    +0.064 C 
DOCKED: ATOM      5  C   UNL d   1      22.769   6.507  -5.758 -0.15 +0.01    +0.066 A 
DOCKED: ATOM      6  C   UNL d   1      22.014   5.638  -6.529 -0.29 -0.00    -0.021 A 
DOCKED: ATOM      7  C   UNL d   1      21.395   4.772  -5.662 -0.38 -0.00    -0.025 A 
DOCKED: ATOM      8  C   UNL d   1      21.795   5.147  -4.394 -0.37 +0.01    +0.066 A 
DOCKED: ATOM      9  C   UNL d   1      20.487   3.642  -6.041 -0.48 +0.01    +0.051 C 
DOCKED: ATOM     10  C   UNL d   1      21.754   4.804  -1.940 -0.36 +0.01    +0.066 A 
DOCKED: ATOM     11  C   UNL d   1      21.214   4.244  -0.779 -0.41 -0.00    -0.021 A 
DOCKED: ATOM     12  C   UNL d   1      21.898   4.807   0.280 -0.46 +0.00    +0.000 A 
DOCKED: ATOM     13  C   UNL d   1      22.823   5.696  -0.294 -0.32 +0.00    +0.070 A 
DOCKED: ATOM     14  C   UNL d   1      20.057   3.271  -0.681 -0.07 +0.00    +0.052 C 
DOCKED: ATOM     15  C   UNL d   1      24.664   7.361  -0.093 -0.33 +0.00    +0.066 A 
DOCKED: ATOM     16  C   UNL d   1      25.656   8.002   0.639 -0.36 -0.00    -0.021 A 
DOCKED: ATOM     17  C   UNL d   1      26.301   8.860  -0.228 -0.33 +0.00    +0.000 A 
DOCKED: ATOM     18  C   UNL d   1      25.683   8.725  -1.469 -0.36 +0.01    +0.070 A 
DOCKED: ATOM     19  C   UNL d   1      25.972   7.835   2.101 -0.47 +0.00    +0.052 C 
DOCKED: ATOM     20  C   UNL d   1      25.461   9.270  -3.900 -0.40 +0.01    +0.066 A 
DOCKED: ATOM     21  C   UNL d   1      25.683  10.124  -4.989 -0.21 -0.00    -0.025 A 
DOCKED: ATOM     22  C   UNL d   1      24.976   9.584  -6.043 -0.31 -0.01    -0.021 A 
DOCKED: ATOM     23  C   UNL d   1      24.347   8.431  -5.557 -0.32 +0.02    +0.066 A 
DOCKED: ATOM     24  C   UNL d   1      26.513  11.386  -5.044 -0.05 +0.01    +0.051 C 
DOCKED: ATOM     25  N   UNL d   1      22.639   6.197  -4.457 -0.23 -0.03    -0.248 N 
DOCKED: ATOM     26  N   UNL d   1      22.730   5.701  -1.647 -0.21 -0.01    -0.248 N 
DOCKED: ATOM     27  N   UNL d   1      24.706   7.772  -1.398 -0.23 -0.01    -0.248 N 
DOCKED: ATOM     28  N   UNL d   1      24.610   8.270  -4.237 -0.24 -0.04    -0.248 N 
DOCKED: ATOM     29 FE   UNL d   1      23.671   6.987  -2.942 -0.08 +0.00    +0.000 Fe
DOCKED: ENDROOT
DOCKED: BRANCH   6  30
DOCKED: ATOM     30  C   UNL d   1      21.903   5.615  -8.015 -0.28 +0.02    +0.052 C 
DOCKED: BRANCH  30  31
DOCKED: ATOM     31  C   UNL d   1      23.117   4.934  -8.637 -0.30 +0.04    +0.115 C 
DOCKED: BRANCH  31  32
DOCKED: ATOM     32  C   UNL d   1      22.971   4.864 -10.132 -0.20 +0.07    +0.139 C 
DOCKED: ATOM     33  O   UNL d   1      22.281   3.998 -10.651 -0.30 -0.27    -0.650 OA
DOCKED: BRANCH  32  34
DOCKED: ATOM     34  O   UNL d   1      23.602   5.756 -10.914 +0.07 -0.60    -0.776 OA
DOCKED: ATOM     35  H   UNL d   1      24.076   6.491 -10.500 +0.04 +0.20    +0.167 HD
DOCKED: ENDBRANCH  32  34
DOCKED: ENDBRANCH  31  32
DOCKED: ENDBRANCH  30  31
DOCKED: ENDBRANCH   6  30
DOCKED: BRANCH  22  36
DOCKED: ATOM     36  C   UNL d   1      24.872  10.172  -7.426 -0.28 +0.02    +0.052 C 
DOCKED: BRANCH  36  37
DOCKED: ATOM     37  C   UNL d   1      25.670   9.325  -8.405 +0.10 +0.11    +0.115 C 
DOCKED: BRANCH  37  38
DOCKED: ATOM     38  C   UNL d   1      24.873   8.137  -8.866 +0.04 +0.19    +0.139 C 
DOCKED: ATOM     39  O   UNL d   1      23.749   8.279  -9.325 -0.03 -0.56    -0.650 OA
DOCKED: BRANCH  38  40
DOCKED: ATOM     40  O   UNL d   1      25.394   6.901  -8.771 -0.52 -1.33    -0.776 OA
DOCKED: ATOM     41  H   UNL d   1      24.964   6.172  -9.240 +0.05 +0.23    +0.167 HD
DOCKED: ENDBRANCH  38  40
DOCKED: ENDBRANCH  37  38
DOCKED: ENDBRANCH  36  37
DOCKED: ENDBRANCH  22  36
DOCKED: BRANCH  12  42
DOCKED: ATOM     42  C   UNL d   1      21.641   4.504   1.722 -0.68 +0.00    +0.004 C 
DOCKED: ATOM     43  C   UNL d   1      21.576   3.240   2.160 -0.58 -0.00    +0.012 C 
DOCKED: ENDBRANCH  12  42
DOCKED: BRANCH  17  44
DOCKED: ATOM     44  C   UNL d   1      27.447   9.736   0.105 -0.55 -0.00    +0.004 C 
DOCKED: ATOM     45  C   UNL d   1      27.251  10.989   0.529 -0.63 +0.00    +0.012 C 
DOCKED: ENDBRANCH  17  44
DOCKED: TORSDOF 10
DOCKED: TER
DOCKED: ENDMDL
________________________________________________________________________________


	BEGINNING GENETIC ALGORITHM DOCKING 43 of 100
Run: 43 Seed: 349300102 1668676946 [ Run 43 of 100 GA/GALS ]
Beginning LAMARCKIAN GENETIC ALGORITHM (LGA), with a maximum of 25000000 energy evaluations.

Final-Value: -17.435


	FINAL GENETIC ALGORITHM DOCKED STATE
	_______________________________________________


Detailed state:  trans 24.304 -6.986 32.709 quatxyzw -0.662534 -0.175001 0.728190 0.012727 center -0.174 -0.001 -0.047 ntor 10 -179.4887 180.0000 53.0254 -118.5858 -51.6313 15.0702 86.7670 60.1537 1.0665 47.7591
State:	 24.304  -6.986  32.709  -0.663 -0.175  0.728 178.542   -179.49  180.00   53.03 -118.59  -51.63   15.07   86.77   60.15    1.07   47.76

DOCKED: MODEL       43
DOCKED: USER    Run = 43
DOCKED: USER    DPF = D:/Protein_go_brrr/autodock/final/1A3N/heme_Fe/dock.dpf
DOCKED: USER  
DOCKED: USER    Estimated Free Energy of Binding    =  -13.74 kcal/mol  [=(1)+(2)+(3)-(4)]
DOCKED: USER    Estimated Inhibition Constant, Ki   =   84.80 pM (picomolar)  [Temperature = 298.15 K]
DOCKED: USER    
DOCKED: USER    (1) Final Intermolecular Energy     =  -16.72 kcal/mol
DOCKED: USER        vdW + Hbond + desolv Energy     =  -13.79 kcal/mol
DOCKED: USER        Electrostatic Energy            =   -2.93 kcal/mol
DOCKED: USER    (2) Final Total Internal Energy     =   -0.71 kcal/mol
DOCKED: USER    (3) Torsional Free Energy           =   +2.98 kcal/mol
DOCKED: USER    (4) Unbound System's Energy  [=(2)] =   -0.71 kcal/mol
DOCKED: USER    
DOCKED: USER    
DOCKED: USER    NEWDPF move heme_Fe_opt.pdbqt
DOCKED: USER    NEWDPF about -0.174000 -0.001000 -0.047000
DOCKED: USER    NEWDPF tran0 24.304283 -6.986497 32.709486
DOCKED: USER    NEWDPF quaternion0 -0.662534 -0.175001 0.728190 0.012727
DOCKED: USER    NEWDPF axisangle0 -0.662588 -0.175015 0.728249 178.541556
DOCKED: USER    NEWDPF quat0 -0.662588 -0.175015 0.728249 178.541556
DOCKED: USER    NEWDPF dihe0 -179.49 180.00 53.03 -118.59 -51.63 15.07 86.77 60.15 1.07 47.76 
DOCKED: USER  keepresnum = 1 
DOCKED: USER  
DOCKED: REMARK  10 active torsions:
DOCKED: REMARK  status: ('A' for Active; 'I' for Inactive)
DOCKED: REMARK    1  A    between atoms: C_6  and  C_10 
DOCKED: REMARK    2  A    between atoms: C_10  and  C_11 
DOCKED: REMARK    3  A    between atoms: C_11  and  C_12 
DOCKED: REMARK    4  A    between atoms: C_12  and  O_14 
DOCKED: REMARK    5  A    between atoms: C_17  and  C_20 
DOCKED: REMARK    6  A    between atoms: C_24  and  C_27 
DOCKED: REMARK    7  A    between atoms: C_31  and  C_34 
DOCKED: REMARK    8  A    between atoms: C_34  and  C_35 
DOCKED: REMARK    9  A    between atoms: C_35  and  C_36 
DOCKED: REMARK   10  A    between atoms: C_36  and  O_38 
DOCKED: USER                              x       y       z     vdW  Elec       q    Type
DOCKED: USER                           _______ _______ _______ _____ _____    ______ ____
DOCKED: ROOT
DOCKED: ATOM      1  C   UNL d   1      24.020  -7.498  34.676 -0.31 +0.02    +0.064 C 
DOCKED: ATOM      2  C   UNL d   1      22.929  -3.546  31.916 -0.42 +0.01    +0.064 A 
DOCKED: ATOM      3  C   UNL d   1      23.783  -6.151  27.972 -0.44 +0.00    +0.064 C 
DOCKED: ATOM      4  C   UNL d   1      24.945  -9.957  30.627 -0.47 +0.00    +0.064 C 
DOCKED: ATOM      5  C   UNL d   1      23.714  -6.121  34.267 -0.21 +0.02    +0.066 A 
DOCKED: ATOM      6  C   UNL d   1      23.520  -5.061  35.138 -0.25 -0.00    -0.021 A 
DOCKED: ATOM      7  C   UNL d   1      23.213  -3.965  34.371 -0.35 -0.00    -0.025 A 
DOCKED: ATOM      8  C   UNL d   1      23.233  -4.398  33.059 -0.35 +0.01    +0.066 A 
DOCKED: ATOM      9  C   UNL d   1      22.938  -2.582  34.877 -0.42 +0.01    +0.051 C 
DOCKED: ATOM     10  C   UNL d   1      22.996  -3.923  30.638 -0.40 +0.01    +0.066 A 
DOCKED: ATOM     11  C   UNL d   1      22.589  -3.120  29.570 -0.45 -0.00    -0.021 A 
DOCKED: ATOM     12  C   UNL d   1      22.809  -3.855  28.422 -0.46 +0.00    +0.000 A 
DOCKED: ATOM     13  C   UNL d   1      23.337  -5.084  28.854 -0.38 +0.00    +0.070 A 
DOCKED: ATOM     14  C   UNL d   1      21.956  -1.745  29.644 -0.45 +0.00    +0.052 C 
DOCKED: ATOM     15  C   UNL d   1      24.244  -7.356  28.383 -0.38 +0.00    +0.066 A 
DOCKED: ATOM     16  C   UNL d   1      24.754  -8.311  27.513 -0.41 -0.00    -0.021 A 
DOCKED: ATOM     17  C   UNL d   1      25.086  -9.411  28.276 -0.48 +0.00    +0.000 A 
DOCKED: ATOM     18  C   UNL d   1      24.767  -9.102  29.596 -0.39 +0.00    +0.070 A 
DOCKED: ATOM     19  C   UNL d   1      24.900  -8.206  26.019 -0.47 +0.00    +0.052 C 
DOCKED: ATOM     20  C   UNL d   1      24.679  -9.645  32.036 -0.35 +0.01    +0.066 A 
DOCKED: ATOM     21  C   UNL d   1      24.667 -10.577  33.084 -0.27 -0.00    -0.025 A 
DOCKED: ATOM     22  C   UNL d   1      24.414  -9.852  34.230 -0.27 -0.01    -0.021 A 
DOCKED: ATOM     23  C   UNL d   1      24.275  -8.516  33.838 -0.30 +0.02    +0.066 A 
DOCKED: ATOM     24  C   UNL d   1      24.878 -12.072  33.019 -0.16 +0.01    +0.051 C 
DOCKED: ATOM     25  N   UNL d   1      23.547  -5.707  32.998 -0.19 -0.04    -0.248 N 
DOCKED: ATOM     26  N   UNL d   1      23.443  -5.130  30.205 -0.25 -0.02    -0.248 N 
DOCKED: ATOM     27  N   UNL d   1      24.290  -7.823  29.670 -0.23 -0.00    -0.248 N 
DOCKED: ATOM     28  N   UNL d   1      24.393  -8.402  32.493 -0.23 -0.04    -0.248 N 
DOCKED: ATOM     29 FE   UNL d   1      23.919  -6.768  31.348 -0.09 +0.00    +0.000 Fe
DOCKED: ENDROOT
DOCKED: BRANCH   6  30
DOCKED: ATOM     30  C   UNL d   1      23.640  -5.082  36.624 -0.21 +0.01    +0.052 C 
DOCKED: BRANCH  30  31
DOCKED: ATOM     31  C   UNL d   1      25.062  -4.742  37.056 -0.19 +0.05    +0.115 C 
DOCKED: BRANCH  31  32
DOCKED: ATOM     32  C   UNL d   1      25.872  -5.996  37.234 -0.17 +0.14    +0.139 C 
DOCKED: ATOM     33  O   UNL d   1      25.458  -6.912  37.931 -0.31 -0.75    -0.650 OA
DOCKED: BRANCH  32  34
DOCKED: ATOM     34  O   UNL d   1      27.063  -6.122  36.625 +0.10 -1.33    -0.776 OA
DOCKED: ATOM     35  H   UNL d   1      27.391  -5.393  36.080 -0.29 +0.14    +0.167 HD
DOCKED: ENDBRANCH  32  34
DOCKED: ENDBRANCH  31  32
DOCKED: ENDBRANCH  30  31
DOCKED: ENDBRANCH   6  30
DOCKED: BRANCH  22  36
DOCKED: ATOM     36  C   UNL d   1      24.265 -10.423  35.616 -0.21 +0.02    +0.052 C 
DOCKED: BRANCH  36  37
DOCKED: ATOM     37  C   UNL d   1      24.842  -9.451  36.636 -0.16 +0.07    +0.115 C 
DOCKED: BRANCH  37  38
DOCKED: ATOM     38  C   UNL d   1      25.952 -10.090  37.421 +0.01 +0.14    +0.139 C 
DOCKED: ATOM     39  O   UNL d   1      26.470 -11.129  37.040 -0.04 -0.46    -0.650 OA
DOCKED: BRANCH  38  40
DOCKED: ATOM     40  O   UNL d   1      26.382  -9.519  38.560 -0.13 -1.23    -0.776 OA
DOCKED: ATOM     41  H   UNL d   1      25.971  -8.696  38.859 +0.01 +0.26    +0.167 HD
DOCKED: ENDBRANCH  38  40
DOCKED: ENDBRANCH  37  38
DOCKED: ENDBRANCH  36  37
DOCKED: ENDBRANCH  22  36
DOCKED: BRANCH  12  42
DOCKED: ATOM     42  C   UNL d   1      22.506  -3.387  27.035 -0.57 +0.00    +0.004 C 
DOCKED: ATOM     43  C   UNL d   1      23.476  -2.923  26.236 -0.63 +0.00    +0.012 C 
DOCKED: ENDBRANCH  12  42
DOCKED: BRANCH  17  44
DOCKED: ATOM     44  C   UNL d   1      25.689 -10.667  27.777 -0.51 -0.00    +0.004 C 
DOCKED: ATOM     45  C   UNL d   1      25.018 -11.463  26.938 -0.66 -0.00    +0.012 C 
DOCKED: ENDBRANCH  17  44
DOCKED: TORSDOF 10
DOCKED: TER
DOCKED: ENDMDL
________________________________________________________________________________


	BEGINNING GENETIC ALGORITHM DOCKING 44 of 100
Run: 44 Seed: 265010119 221362751 [ Run 44 of 100 GA/GALS ]
Beginning LAMARCKIAN GENETIC ALGORITHM (LGA), with a maximum of 25000000 energy evaluations.

Final-Value: -17.939


	FINAL GENETIC ALGORITHM DOCKED STATE
	_______________________________________________


Detailed state:  trans 8.269 12.943 29.229 quatxyzw 0.603914 0.017244 -0.762086 -0.232840 center -0.174 -0.001 -0.047 ntor 10 58.3972 -137.4919 65.8066 -130.7462 -72.3852 -10.5901 -26.2012 55.3537 -136.5041 25.2282
State:	  8.269  12.943  29.229   0.621  0.018 -0.784 -153.071     58.40 -137.49   65.81 -130.75  -72.39  -10.59  -26.20   55.35 -136.50   25.23

DOCKED: MODEL       44
DOCKED: USER    Run = 44
DOCKED: USER    DPF = D:/Protein_go_brrr/autodock/final/1A3N/heme_Fe/dock.dpf
DOCKED: USER  
DOCKED: USER    Estimated Free Energy of Binding    =  -14.46 kcal/mol  [=(1)+(2)+(3)-(4)]
DOCKED: USER    Estimated Inhibition Constant, Ki   =   24.98 pM (picomolar)  [Temperature = 298.15 K]
DOCKED: USER    
DOCKED: USER    (1) Final Intermolecular Energy     =  -17.45 kcal/mol
DOCKED: USER        vdW + Hbond + desolv Energy     =  -14.20 kcal/mol
DOCKED: USER        Electrostatic Energy            =   -3.25 kcal/mol
DOCKED: USER    (2) Final Total Internal Energy     =   -0.49 kcal/mol
DOCKED: USER    (3) Torsional Free Energy           =   +2.98 kcal/mol
DOCKED: USER    (4) Unbound System's Energy  [=(2)] =   -0.49 kcal/mol
DOCKED: USER    
DOCKED: USER    
DOCKED: USER    NEWDPF move heme_Fe_opt.pdbqt
DOCKED: USER    NEWDPF about -0.174000 -0.001000 -0.047000
DOCKED: USER    NEWDPF tran0 8.268765 12.943334 29.228638
DOCKED: USER    NEWDPF quaternion0 0.603914 0.017244 -0.762086 -0.232840
DOCKED: USER    NEWDPF axisangle0 0.620982 0.017731 -0.783624 -153.071307
DOCKED: USER    NEWDPF quat0 0.620982 0.017731 -0.783624 -153.071307
DOCKED: USER    NEWDPF dihe0 58.40 -137.49 65.81 -130.75 -72.39 -10.59 -26.20 55.35 -136.50 25.23 
DOCKED: USER  keepresnum = 1 
DOCKED: USER  
DOCKED: REMARK  10 active torsions:
DOCKED: REMARK  status: ('A' for Active; 'I' for Inactive)
DOCKED: REMARK    1  A    between atoms: C_6  and  C_10 
DOCKED: REMARK    2  A    between atoms: C_10  and  C_11 
DOCKED: REMARK    3  A    between atoms: C_11  and  C_12 
DOCKED: REMARK    4  A    between atoms: C_12  and  O_14 
DOCKED: REMARK    5  A    between atoms: C_17  and  C_20 
DOCKED: REMARK    6  A    between atoms: C_24  and  C_27 
DOCKED: REMARK    7  A    between atoms: C_31  and  C_34 
DOCKED: REMARK    8  A    between atoms: C_34  and  C_35 
DOCKED: REMARK    9  A    between atoms: C_35  and  C_36 
DOCKED: REMARK   10  A    between atoms: C_36  and  O_38 
DOCKED: USER                              x       y       z     vdW  Elec       q    Type
DOCKED: USER                           _______ _______ _______ _____ _____    ______ ____
DOCKED: ROOT
DOCKED: ATOM      1  C   UNL d   1       8.082  13.494  31.197 -0.29 +0.02    +0.064 C 
DOCKED: ATOM      2  C   UNL d   1       6.418  15.296  26.906 -0.44 +0.01    +0.064 A 
DOCKED: ATOM      3  C   UNL d   1       7.579  11.143  24.791 -0.31 +0.00    +0.064 C 
DOCKED: ATOM      4  C   UNL d   1       9.291   9.418  28.911 -0.46 +0.01    +0.064 C 
DOCKED: ATOM      5  C   UNL d   1       7.583  14.417  30.168 -0.30 +0.02    +0.066 A 
DOCKED: ATOM      6  C   UNL d   1       7.254  15.744  30.389 -0.33 -0.01    -0.021 A 
DOCKED: ATOM      7  C   UNL d   1       6.788  16.243  29.197 -0.37 -0.00    -0.025 A 
DOCKED: ATOM      8  C   UNL d   1       6.852  15.200  28.294 -0.40 +0.01    +0.066 A 
DOCKED: ATOM      9  C   UNL d   1       6.330  17.647  28.947 -0.27 +0.01    +0.051 C 
DOCKED: ATOM     10  C   UNL d   1       6.522  14.323  25.999 -0.37 +0.01    +0.066 A 
DOCKED: ATOM     11  C   UNL d   1       5.993  14.407  24.709 -0.40 -0.00    -0.021 A 
DOCKED: ATOM     12  C   UNL d   1       6.300  13.214  24.083 -0.39 +0.00    +0.000 A 
DOCKED: ATOM     13  C   UNL d   1       6.999  12.454  25.037 -0.34 +0.00    +0.070 A 
DOCKED: ATOM     14  C   UNL d   1       5.176  15.539  24.122 -0.56 +0.00    +0.052 C 
DOCKED: ATOM     15  C   UNL d   1       8.208  10.386  25.720 -0.35 +0.01    +0.066 A 
DOCKED: ATOM     16  C   UNL d   1       8.835   9.183  25.421 -0.44 -0.00    -0.021 A 
DOCKED: ATOM     17  C   UNL d   1       9.326   8.682  26.608 -0.42 +0.00    +0.000 A 
DOCKED: ATOM     18  C   UNL d   1       8.983   9.591  27.607 -0.38 +0.01    +0.070 A 
DOCKED: ATOM     19  C   UNL d   1       8.947   8.516  24.076 -0.63 +0.00    +0.052 C 
DOCKED: ATOM     20  C   UNL d   1       9.001  10.382  29.979 -0.38 +0.02    +0.066 A 
DOCKED: ATOM     21  C   UNL d   1       9.132  10.132  31.353 -0.38 -0.01    -0.025 A 
DOCKED: ATOM     22  C   UNL d   1       8.795  11.311  31.985 -0.31 -0.01    -0.021 A 
DOCKED: ATOM     23  C   UNL d   1       8.467  12.227  30.978 -0.24 +0.02    +0.066 A 
DOCKED: ATOM     24  C   UNL d   1       9.548   8.854  32.044 -0.48 +0.02    +0.051 C 
DOCKED: ATOM     25  N   UNL d   1       7.345  14.093  28.885 -0.23 -0.05    -0.248 N 
DOCKED: ATOM     26  N   UNL d   1       7.127  13.126  26.208 -0.23 -0.02    -0.248 N 
DOCKED: ATOM     27  N   UNL d   1       8.334  10.660  27.056 -0.23 -0.02    -0.248 N 
DOCKED: ATOM     28  N   UNL d   1       8.551  11.641  29.759 -0.22 -0.06    -0.248 N 
DOCKED: ATOM     29 FE   UNL d   1       7.840  12.382  27.984 -0.08 +0.00    +0.000 Fe
DOCKED: ENDROOT
DOCKED: BRANCH   6  30
DOCKED: ATOM     30  C   UNL d   1       7.393  16.508  31.661 -0.28 +0.02    +0.052 C 
DOCKED: BRANCH  30  31
DOCKED: ATOM     31  C   UNL d   1       6.833  15.711  32.834 -0.14 +0.10    +0.115 C 
DOCKED: BRANCH  31  32
DOCKED: ATOM     32  C   UNL d   1       7.501  16.124  34.116 -0.11 +0.16    +0.139 C 
DOCKED: ATOM     33  O   UNL d   1       8.658  15.802  34.348 -0.01 -0.48    -0.650 OA
DOCKED: BRANCH  32  34
DOCKED: ATOM     34  O   UNL d   1       6.828  16.852  35.023 -0.53 -1.34    -0.776 OA
DOCKED: ATOM     35  H   UNL d   1       7.181  17.713  35.289 +0.01 +0.16    +0.167 HD
DOCKED: ENDBRANCH  32  34
DOCKED: ENDBRANCH  31  32
DOCKED: ENDBRANCH  30  31
DOCKED: ENDBRANCH   6  30
DOCKED: BRANCH  22  36
DOCKED: ATOM     36  C   UNL d   1       8.744  11.527  33.474 -0.28 +0.03    +0.052 C 
DOCKED: BRANCH  36  37
DOCKED: ATOM     37  C   UNL d   1       9.675  12.667  33.860 -0.21 +0.09    +0.115 C 
DOCKED: BRANCH  37  38
DOCKED: ATOM     38  C   UNL d   1      10.652  12.231  34.915 -0.09 +0.18    +0.139 C 
DOCKED: ATOM     39  O   UNL d   1      10.516  11.162  35.490 -0.25 -0.86    -0.650 OA
DOCKED: BRANCH  38  40
DOCKED: ATOM     40  O   UNL d   1      11.690  13.024  35.237 -0.33 -1.50    -0.776 OA
DOCKED: ATOM     41  H   UNL d   1      11.544  13.976  35.327 +0.03 +0.19    +0.167 HD
DOCKED: ENDBRANCH  38  40
DOCKED: ENDBRANCH  37  38
DOCKED: ENDBRANCH  36  37
DOCKED: ENDBRANCH  22  36
DOCKED: BRANCH  12  42
DOCKED: ATOM     42  C   UNL d   1       5.917  12.860  22.682 -0.47 +0.00    +0.004 C 
DOCKED: ATOM     43  C   UNL d   1       6.848  12.702  21.732 -0.54 +0.00    +0.012 C 
DOCKED: ENDBRANCH  12  42
DOCKED: BRANCH  17  44
DOCKED: ATOM     44  C   UNL d   1      10.092   7.426  26.774 -0.12 +0.00    +0.004 C 
DOCKED: ATOM     45  C   UNL d   1       9.475   6.240  26.754 -0.66 +0.00    +0.012 C 
DOCKED: ENDBRANCH  17  44
DOCKED: TORSDOF 10
DOCKED: TER
DOCKED: ENDMDL
________________________________________________________________________________


	BEGINNING GENETIC ALGORITHM DOCKING 45 of 100
Run: 45 Seed: 925649320 1743286062 [ Run 45 of 100 GA/GALS ]
Beginning LAMARCKIAN GENETIC ALGORITHM (LGA), with a maximum of 25000000 energy evaluations.

Final-Value: -11.526


	FINAL GENETIC ALGORITHM DOCKED STATE
	_______________________________________________


Detailed state:  trans 6.346 -13.243 19.037 quatxyzw 0.029069 0.756161 -0.265912 0.597216 center -0.174 -0.001 -0.047 ntor 10 76.6428 126.2151 65.5985 -111.8148 179.1720 -5.8803 73.7555 51.9229 24.8892 58.5751
State:	  6.346 -13.243  19.037   0.036  0.943 -0.332 106.659     76.64  126.22   65.60 -111.81  179.17   -5.88   73.76   51.92   24.89   58.58

DOCKED: MODEL       45
DOCKED: USER    Run = 45
DOCKED: USER    DPF = D:/Protein_go_brrr/autodock/final/1A3N/heme_Fe/dock.dpf
DOCKED: USER  
DOCKED: USER    Estimated Free Energy of Binding    =   -7.41 kcal/mol  [=(1)+(2)+(3)-(4)]
DOCKED: USER    Estimated Inhibition Constant, Ki   =    3.72 uM (micromolar)  [Temperature = 298.15 K]
DOCKED: USER    
DOCKED: USER    (1) Final Intermolecular Energy     =  -10.39 kcal/mol
DOCKED: USER        vdW + Hbond + desolv Energy     =   -7.09 kcal/mol
DOCKED: USER        Electrostatic Energy            =   -3.30 kcal/mol
DOCKED: USER    (2) Final Total Internal Energy     =   -1.14 kcal/mol
DOCKED: USER    (3) Torsional Free Energy           =   +2.98 kcal/mol
DOCKED: USER    (4) Unbound System's Energy  [=(2)] =   -1.14 kcal/mol
DOCKED: USER    
DOCKED: USER    
DOCKED: USER    NEWDPF move heme_Fe_opt.pdbqt
DOCKED: USER    NEWDPF about -0.174000 -0.001000 -0.047000
DOCKED: USER    NEWDPF tran0 6.345866 -13.242903 19.036854
DOCKED: USER    NEWDPF quaternion0 0.029069 0.756161 -0.265912 0.597216
DOCKED: USER    NEWDPF axisangle0 0.036242 0.942749 -0.331527 106.658510
DOCKED: USER    NEWDPF quat0 0.036242 0.942749 -0.331527 106.658510
DOCKED: USER    NEWDPF dihe0 76.64 126.22 65.60 -111.81 179.17 -5.88 73.76 51.92 24.89 58.58 
DOCKED: USER  keepresnum = 1 
DOCKED: USER  
DOCKED: REMARK  10 active torsions:
DOCKED: REMARK  status: ('A' for Active; 'I' for Inactive)
DOCKED: REMARK    1  A    between atoms: C_6  and  C_10 
DOCKED: REMARK    2  A    between atoms: C_10  and  C_11 
DOCKED: REMARK    3  A    between atoms: C_11  and  C_12 
DOCKED: REMARK    4  A    between atoms: C_12  and  O_14 
DOCKED: REMARK    5  A    between atoms: C_17  and  C_20 
DOCKED: REMARK    6  A    between atoms: C_24  and  C_27 
DOCKED: REMARK    7  A    between atoms: C_31  and  C_34 
DOCKED: REMARK    8  A    between atoms: C_34  and  C_35 
DOCKED: REMARK    9  A    between atoms: C_35  and  C_36 
DOCKED: REMARK   10  A    between atoms: C_36  and  O_38 
DOCKED: USER                              x       y       z     vdW  Elec       q    Type
DOCKED: USER                           _______ _______ _______ _____ _____    ______ ____
DOCKED: ROOT
DOCKED: ATOM      1  C   UNL d   1       6.438 -14.205  17.227 -0.09 +0.03    +0.064 C 
DOCKED: ATOM      2  C   UNL d   1       6.485 -15.663  21.949 -0.18 +0.02    +0.064 A 
DOCKED: ATOM      3  C   UNL d   1       4.924 -11.307  23.237 -0.21 +0.03    +0.064 C 
DOCKED: ATOM      4  C   UNL d   1       4.971  -9.843  18.683 -0.23 +0.02    +0.064 C 
DOCKED: ATOM      5  C   UNL d   1       6.676 -14.993  18.444 -0.09 +0.03    +0.066 A 
DOCKED: ATOM      6  C   UNL d   1       7.232 -16.262  18.469 -0.10 -0.01    -0.021 A 
DOCKED: ATOM      7  C   UNL d   1       7.241 -16.667  19.781 -0.15 -0.01    -0.025 A 
DOCKED: ATOM      8  C   UNL d   1       6.690 -15.629  20.507 -0.16 +0.03    +0.066 A 
DOCKED: ATOM      9  C   UNL d   1       7.768 -17.970  20.298 -0.14 +0.03    +0.051 C 
DOCKED: ATOM     10  C   UNL d   1       6.010 -14.654  22.681 -0.18 +0.02    +0.066 A 
DOCKED: ATOM     11  C   UNL d   1       5.717 -14.755  24.044 -0.17 -0.00    -0.021 A 
DOCKED: ATOM     12  C   UNL d   1       5.249 -13.517  24.435 -0.16 +0.00    +0.000 A 
DOCKED: ATOM     13  C   UNL d   1       5.273 -12.718  23.279 -0.19 +0.02    +0.070 A 
DOCKED: ATOM     14  C   UNL d   1       5.814 -15.991  24.915 -0.14 +0.01    +0.052 C 
DOCKED: ATOM     15  C   UNL d   1       4.895 -10.548  22.117 -0.17 +0.04    +0.066 A 
DOCKED: ATOM     16  C   UNL d   1       4.654  -9.180  22.133 -0.18 -0.01    -0.021 A 
DOCKED: ATOM     17  C   UNL d   1       4.663  -8.756  20.820 -0.20 +0.00    +0.000 A 
DOCKED: ATOM     18  C   UNL d   1       4.907  -9.878  20.032 -0.17 +0.03    +0.070 A 
DOCKED: ATOM     19  C   UNL d   1       4.398  -8.307  23.332 -0.19 +0.01    +0.052 C 
DOCKED: ATOM     20  C   UNL d   1       5.286 -10.991  17.825 -0.18 +0.02    +0.066 A 
DOCKED: ATOM     21  C   UNL d   1       5.161 -11.017  16.428 -0.25 -0.01    -0.025 A 
DOCKED: ATOM     22  C   UNL d   1       5.596 -12.265  16.033 -0.16 -0.01    -0.021 A 
DOCKED: ATOM     23  C   UNL d   1       5.962 -12.950  17.198 -0.07 +0.02    +0.066 A 
DOCKED: ATOM     24  C   UNL d   1       4.655  -9.932  15.506 -0.26 +0.01    +0.051 C 
DOCKED: ATOM     25  N   UNL d   1       6.356 -14.608  19.692 -0.05 -0.13    -0.248 N 
DOCKED: ATOM     26  N   UNL d   1       5.728 -13.413  22.207 -0.13 -0.11    -0.248 N 
DOCKED: ATOM     27  N   UNL d   1       5.093 -10.972  20.830 -0.15 -0.13    -0.248 N 
DOCKED: ATOM     28  N   UNL d   1       5.729 -12.184  18.291 -0.01 -0.08    -0.248 N 
DOCKED: ATOM     29 FE   UNL d   1       5.728 -12.797  20.248 -0.05 +0.00    +0.000 Fe
DOCKED: ENDROOT
DOCKED: BRANCH   6  30
DOCKED: ATOM     30  C   UNL d   1       7.748 -17.043  17.309 -0.05 +0.04    +0.052 C 
DOCKED: BRANCH  30  31
DOCKED: ATOM     31  C   UNL d   1       9.255 -17.243  17.421 -0.05 +0.15    +0.115 C 
DOCKED: BRANCH  31  32
DOCKED: ATOM     32  C   UNL d   1       9.978 -16.364  16.439 -0.05 +0.19    +0.139 C 
DOCKED: ATOM     33  O   UNL d   1      11.199 -16.365  16.382 -0.41 -1.33    -0.650 OA
DOCKED: BRANCH  32  34
DOCKED: ATOM     34  O   UNL d   1       9.283 -15.566  15.610 +0.03 -0.80    -0.776 OA
DOCKED: ATOM     35  H   UNL d   1       9.181 -15.825  14.684 +0.02 +0.22    +0.167 HD
DOCKED: ENDBRANCH  32  34
DOCKED: ENDBRANCH  31  32
DOCKED: ENDBRANCH  30  31
DOCKED: ENDBRANCH   6  30
DOCKED: BRANCH  22  36
DOCKED: ATOM     36  C   UNL d   1       5.611 -12.785  14.620 -0.21 +0.02    +0.052 C 
DOCKED: BRANCH  36  37
DOCKED: ATOM     37  C   UNL d   1       6.658 -13.881  14.487 -0.11 +0.08    +0.115 C 
DOCKED: BRANCH  37  38
DOCKED: ATOM     38  C   UNL d   1       7.571 -13.617  13.323 -0.20 +0.15    +0.139 C 
DOCKED: ATOM     39  O   UNL d   1       7.357 -12.686  12.560 -0.50 -0.67    -0.650 OA
DOCKED: BRANCH  38  40
DOCKED: ATOM     40  O   UNL d   1       8.634 -14.412  13.110 -0.02 -1.48    -0.776 OA
DOCKED: ATOM     41  H   UNL d   1       9.268 -14.551  13.828 +0.03 +0.24    +0.167 HD
DOCKED: ENDBRANCH  38  40
DOCKED: ENDBRANCH  37  38
DOCKED: ENDBRANCH  36  37
DOCKED: ENDBRANCH  22  36
DOCKED: BRANCH  12  42
DOCKED: ATOM     42  C   UNL d   1       4.804 -13.169  25.820 -0.15 +0.00    +0.004 C 
DOCKED: ATOM     43  C   UNL d   1       5.487 -12.288  26.563 -0.23 +0.00    +0.012 C 
DOCKED: ENDBRANCH  12  42
DOCKED: BRANCH  17  44
DOCKED: ATOM     44  C   UNL d   1       4.473  -7.365  20.352 -0.34 +0.00    +0.004 C 
DOCKED: ATOM     45  C   UNL d   1       3.361  -6.686  20.656 -0.44 +0.00    +0.012 C 
DOCKED: ENDBRANCH  17  44
DOCKED: TORSDOF 10
DOCKED: TER
DOCKED: ENDMDL
________________________________________________________________________________


	BEGINNING GENETIC ALGORITHM DOCKING 46 of 100
Run: 46 Seed: 2092790641 1220393889 [ Run 46 of 100 GA/GALS ]
Beginning LAMARCKIAN GENETIC ALGORITHM (LGA), with a maximum of 25000000 energy evaluations.

Final-Value: -16.676


	FINAL GENETIC ALGORITHM DOCKED STATE
	_______________________________________________


Detailed state:  trans 2.771 -6.726 -4.361 quatxyzw 0.279100 0.710580 0.081995 0.640669 center -0.174 -0.001 -0.047 ntor 10 58.9647 -104.4995 92.4647 -130.8599 179.0630 48.6093 74.8259 72.9275 -171.9112 171.0686
State:	  2.771  -6.726  -4.361   0.363  0.925  0.107 100.317     58.96 -104.50   92.46 -130.86  179.06   48.61   74.83   72.93 -171.91  171.07

DOCKED: MODEL       46
DOCKED: USER    Run = 46
DOCKED: USER    DPF = D:/Protein_go_brrr/autodock/final/1A3N/heme_Fe/dock.dpf
DOCKED: USER  
DOCKED: USER    Estimated Free Energy of Binding    =  -13.10 kcal/mol  [=(1)+(2)+(3)-(4)]
DOCKED: USER    Estimated Inhibition Constant, Ki   =  247.83 pM (picomolar)  [Temperature = 298.15 K]
DOCKED: USER    
DOCKED: USER    (1) Final Intermolecular Energy     =  -16.09 kcal/mol
DOCKED: USER        vdW + Hbond + desolv Energy     =  -14.33 kcal/mol
DOCKED: USER        Electrostatic Energy            =   -1.76 kcal/mol
DOCKED: USER    (2) Final Total Internal Energy     =   -0.59 kcal/mol
DOCKED: USER    (3) Torsional Free Energy           =   +2.98 kcal/mol
DOCKED: USER    (4) Unbound System's Energy  [=(2)] =   -0.59 kcal/mol
DOCKED: USER    
DOCKED: USER    
DOCKED: USER    NEWDPF move heme_Fe_opt.pdbqt
DOCKED: USER    NEWDPF about -0.174000 -0.001000 -0.047000
DOCKED: USER    NEWDPF tran0 2.770995 -6.725987 -4.360690
DOCKED: USER    NEWDPF quaternion0 0.279100 0.710580 0.081995 0.640669
DOCKED: USER    NEWDPF axisangle0 0.363498 0.925454 0.106790 100.316584
DOCKED: USER    NEWDPF quat0 0.363498 0.925454 0.106790 100.316584
DOCKED: USER    NEWDPF dihe0 58.96 -104.50 92.46 -130.86 179.06 48.61 74.83 72.93 -171.91 171.07 
DOCKED: USER  keepresnum = 1 
DOCKED: USER  
DOCKED: REMARK  10 active torsions:
DOCKED: REMARK  status: ('A' for Active; 'I' for Inactive)
DOCKED: REMARK    1  A    between atoms: C_6  and  C_10 
DOCKED: REMARK    2  A    between atoms: C_10  and  C_11 
DOCKED: REMARK    3  A    between atoms: C_11  and  C_12 
DOCKED: REMARK    4  A    between atoms: C_12  and  O_14 
DOCKED: REMARK    5  A    between atoms: C_17  and  C_20 
DOCKED: REMARK    6  A    between atoms: C_24  and  C_27 
DOCKED: REMARK    7  A    between atoms: C_31  and  C_34 
DOCKED: REMARK    8  A    between atoms: C_34  and  C_35 
DOCKED: REMARK    9  A    between atoms: C_35  and  C_36 
DOCKED: REMARK   10  A    between atoms: C_36  and  O_38 
DOCKED: USER                              x       y       z     vdW  Elec       q    Type
DOCKED: USER                           _______ _______ _______ _____ _____    ______ ____
DOCKED: ROOT
DOCKED: ATOM      1  C   UNL d   1       2.328  -7.100  -6.329 -0.30 +0.02    +0.064 C 
DOCKED: ATOM      2  C   UNL d   1       0.742  -8.890  -2.003 -0.40 +0.00    +0.064 A 
DOCKED: ATOM      3  C   UNL d   1       2.778  -5.147   0.213 -0.41 +0.00    +0.064 C 
DOCKED: ATOM      4  C   UNL d   1       4.412  -3.453  -3.952 -0.49 +0.01    +0.064 C 
DOCKED: ATOM      5  C   UNL d   1       1.764  -7.995  -5.309 -0.32 +0.01    +0.066 A 
DOCKED: ATOM      6  C   UNL d   1       1.192  -9.230  -5.568 -0.31 -0.00    -0.021 A 
DOCKED: ATOM      7  C   UNL d   1       0.749  -9.724  -4.367 -0.33 -0.00    -0.025 A 
DOCKED: ATOM      8  C   UNL d   1       1.068  -8.771  -3.419 -0.30 +0.01    +0.066 A 
DOCKED: ATOM      9  C   UNL d   1       0.077 -11.045  -4.150 -0.17 +0.00    +0.051 C 
DOCKED: ATOM     10  C   UNL d   1       1.088  -8.013  -1.059 -0.38 +0.00    +0.066 A 
DOCKED: ATOM     11  C   UNL d   1       0.664  -8.095   0.269 -0.43 -0.00    -0.021 A 
DOCKED: ATOM     12  C   UNL d   1       1.224  -7.018   0.926 -0.34 +0.00    +0.000 A 
DOCKED: ATOM     13  C   UNL d   1       1.962  -6.322  -0.048 -0.37 +0.00    +0.070 A 
DOCKED: ATOM     14  C   UNL d   1      -0.285  -9.113   0.869 -0.59 -0.00    +0.052 C 
DOCKED: ATOM     15  C   UNL d   1       3.449  -4.443  -0.730 -0.37 +0.00    +0.066 A 
DOCKED: ATOM     16  C   UNL d   1       4.297  -3.386  -0.427 -0.47 -0.00    -0.021 A 
DOCKED: ATOM     17  C   UNL d   1       4.767  -2.894  -1.627 -0.48 +0.00    +0.000 A 
DOCKED: ATOM     18  C   UNL d   1       4.189  -3.661  -2.636 -0.39 +0.01    +0.070 A 
DOCKED: ATOM     19  C   UNL d   1       4.636  -2.842   0.935 -0.49 +0.00    +0.052 C 
DOCKED: ATOM     20  C   UNL d   1       3.871  -4.278  -5.039 -0.40 +0.01    +0.066 A 
DOCKED: ATOM     21  C   UNL d   1       3.928  -3.959  -6.403 -0.42 -0.00    -0.025 A 
DOCKED: ATOM     22  C   UNL d   1       3.339  -5.018  -7.063 -0.33 -0.00    -0.021 A 
DOCKED: ATOM     23  C   UNL d   1       2.943  -5.934  -6.080 -0.27 +0.02    +0.066 A 
DOCKED: ATOM     24  C   UNL d   1       4.499  -2.725  -7.060 -0.40 +0.00    +0.051 C 
DOCKED: ATOM     25  N   UNL d   1       1.694  -7.725  -3.993 -0.21 -0.02    -0.248 N 
DOCKED: ATOM     26  N   UNL d   1       1.872  -6.923  -1.260 -0.24 -0.00    -0.248 N 
DOCKED: ATOM     27  N   UNL d   1       3.413  -4.641  -2.084 -0.23 -0.01    -0.248 N 
DOCKED: ATOM     28  N   UNL d   1       3.229  -5.456  -4.845 -0.24 -0.05    -0.248 N 
DOCKED: ATOM     29 FE   UNL d   1       2.552  -6.188  -3.053 -0.09 +0.00    +0.000 Fe
DOCKED: ENDROOT
DOCKED: BRANCH   6  30
DOCKED: ATOM     30  C   UNL d   1       1.090  -9.917  -6.887 -0.24 +0.01    +0.052 C 
DOCKED: BRANCH  30  31
DOCKED: ATOM     31  C   UNL d   1      -0.110  -9.401  -7.674 -0.18 +0.05    +0.115 C 
DOCKED: BRANCH  31  32
DOCKED: ATOM     32  C   UNL d   1      -1.222 -10.412  -7.660 -0.13 +0.05    +0.139 C 
DOCKED: ATOM     33  O   UNL d   1      -2.283 -10.179  -8.222 -0.01 -0.32    -0.650 OA
DOCKED: BRANCH  32  34
DOCKED: ATOM     34  O   UNL d   1      -1.059 -11.586  -7.027 +0.05 -0.13    -0.776 OA
DOCKED: ATOM     35  H   UNL d   1      -1.147 -12.407  -7.531 +0.03 +0.02    +0.167 HD
DOCKED: ENDBRANCH  32  34
DOCKED: ENDBRANCH  31  32
DOCKED: ENDBRANCH  30  31
DOCKED: ENDBRANCH   6  30
DOCKED: BRANCH  22  36
DOCKED: ATOM     36  C   UNL d   1       3.127  -5.120  -8.550 -0.28 +0.01    +0.052 C 
DOCKED: BRANCH  36  37
DOCKED: ATOM     37  C   UNL d   1       1.755  -4.569  -8.911 -0.27 +0.06    +0.115 C 
DOCKED: BRANCH  37  38
DOCKED: ATOM     38  C   UNL d   1       0.815  -5.676  -9.297 -0.18 +0.14    +0.139 C 
DOCKED: ATOM     39  O   UNL d   1       0.702  -6.672  -8.598 -0.16 -0.64    -0.650 OA
DOCKED: BRANCH  38  40
DOCKED: ATOM     40  O   UNL d   1       0.088  -5.577 -10.424 -0.42 -1.13    -0.776 OA
DOCKED: ATOM     41  H   UNL d   1       0.523  -5.715 -11.277 +0.04 +0.13    +0.167 HD
DOCKED: ENDBRANCH  38  40
DOCKED: ENDBRANCH  37  38
DOCKED: ENDBRANCH  36  37
DOCKED: ENDBRANCH  22  36
DOCKED: BRANCH  12  42
DOCKED: ATOM     42  C   UNL d   1       1.027  -6.701   2.374 -0.51 +0.00    +0.004 C 
DOCKED: ATOM     43  C   UNL d   1       2.041  -6.251   3.125 -0.55 +0.00    +0.012 C 
DOCKED: ENDBRANCH  12  42
DOCKED: BRANCH  17  44
DOCKED: ATOM     44  C   UNL d   1       5.723  -1.776  -1.796 -0.64 +0.00    +0.004 C 
DOCKED: ATOM     45  C   UNL d   1       5.324  -0.507  -1.657 -0.68 +0.00    +0.012 C 
DOCKED: ENDBRANCH  17  44
DOCKED: TORSDOF 10
DOCKED: TER
DOCKED: ENDMDL
________________________________________________________________________________


	BEGINNING GENETIC ALGORITHM DOCKING 47 of 100
Run: 47 Seed: 1354412558 770400430 [ Run 47 of 100 GA/GALS ]
Beginning LAMARCKIAN GENETIC ALGORITHM (LGA), with a maximum of 25000000 energy evaluations.

Final-Value: -16.722


	FINAL GENETIC ALGORITHM DOCKED STATE
	_______________________________________________


Detailed state:  trans 22.821 5.926 -4.152 quatxyzw -0.398700 -0.559340 -0.011738 -0.726663 center -0.174 -0.001 -0.047 ntor 10 -116.1766 126.7809 1.8963 122.4799 -173.6456 -69.2035 -39.2661 117.6023 177.6702 -5.6499
State:	 22.821   5.926  -4.152  -0.580 -0.814 -0.017 -86.785   -116.18  126.78    1.90  122.48 -173.65  -69.20  -39.27  117.60  177.67   -5.65

DOCKED: MODEL       47
DOCKED: USER    Run = 47
DOCKED: USER    DPF = D:/Protein_go_brrr/autodock/final/1A3N/heme_Fe/dock.dpf
DOCKED: USER  
DOCKED: USER    Estimated Free Energy of Binding    =  -13.48 kcal/mol  [=(1)+(2)+(3)-(4)]
DOCKED: USER    Estimated Inhibition Constant, Ki   =  132.05 pM (picomolar)  [Temperature = 298.15 K]
DOCKED: USER    
DOCKED: USER    (1) Final Intermolecular Energy     =  -16.46 kcal/mol
DOCKED: USER        vdW + Hbond + desolv Energy     =  -14.72 kcal/mol
DOCKED: USER        Electrostatic Energy            =   -1.74 kcal/mol
DOCKED: USER    (2) Final Total Internal Energy     =   -0.26 kcal/mol
DOCKED: USER    (3) Torsional Free Energy           =   +2.98 kcal/mol
DOCKED: USER    (4) Unbound System's Energy  [=(2)] =   -0.26 kcal/mol
DOCKED: USER    
DOCKED: USER    
DOCKED: USER    NEWDPF move heme_Fe_opt.pdbqt
DOCKED: USER    NEWDPF about -0.174000 -0.001000 -0.047000
DOCKED: USER    NEWDPF tran0 22.820955 5.926000 -4.152235
DOCKED: USER    NEWDPF quaternion0 -0.398700 -0.559340 -0.011738 -0.726663
DOCKED: USER    NEWDPF axisangle0 -0.580355 -0.814184 -0.017086 -86.785189
DOCKED: USER    NEWDPF quat0 -0.580355 -0.814184 -0.017086 -86.785189
DOCKED: USER    NEWDPF dihe0 -116.18 126.78 1.90 122.48 -173.65 -69.20 -39.27 117.60 177.67 -5.65 
DOCKED: USER  keepresnum = 1 
DOCKED: USER  
DOCKED: REMARK  10 active torsions:
DOCKED: REMARK  status: ('A' for Active; 'I' for Inactive)
DOCKED: REMARK    1  A    between atoms: C_6  and  C_10 
DOCKED: REMARK    2  A    between atoms: C_10  and  C_11 
DOCKED: REMARK    3  A    between atoms: C_11  and  C_12 
DOCKED: REMARK    4  A    between atoms: C_12  and  O_14 
DOCKED: REMARK    5  A    between atoms: C_17  and  C_20 
DOCKED: REMARK    6  A    between atoms: C_24  and  C_27 
DOCKED: REMARK    7  A    between atoms: C_31  and  C_34 
DOCKED: REMARK    8  A    between atoms: C_34  and  C_35 
DOCKED: REMARK    9  A    between atoms: C_35  and  C_36 
DOCKED: REMARK   10  A    between atoms: C_36  and  O_38 
DOCKED: USER                              x       y       z     vdW  Elec       q    Type
DOCKED: USER                           _______ _______ _______ _____ _____    ______ ____
DOCKED: ROOT
DOCKED: ATOM      1  C   UNL d   1      21.625   5.351  -5.718 -0.36 +0.01    +0.064 C 
DOCKED: ATOM      2  C   UNL d   1      21.607   4.536  -0.843 -0.37 +0.00    +0.064 A 
DOCKED: ATOM      3  C   UNL d   1      24.740   8.136  -0.299 -0.40 +0.00    +0.064 C 
DOCKED: ATOM      4  C   UNL d   1      24.852   8.873  -5.024 -0.41 +0.01    +0.064 C 
DOCKED: ATOM      5  C   UNL d   1      21.394   4.733  -4.405 -0.39 +0.01    +0.066 A 
DOCKED: ATOM      6  C   UNL d   1      20.631   3.598  -4.189 -0.38 -0.00    -0.021 A 
DOCKED: ATOM      7  C   UNL d   1      20.623   3.374  -2.834 -0.39 -0.00    -0.025 A 
DOCKED: ATOM      8  C   UNL d   1      21.383   4.383  -2.275 -0.37 +0.01    +0.066 A 
DOCKED: ATOM      9  C   UNL d   1      19.939   2.243  -2.130 -0.43 +0.01    +0.051 C 
DOCKED: ATOM     10  C   UNL d   1      22.382   5.466  -0.282 -0.36 +0.00    +0.066 A 
DOCKED: ATOM     11  C   UNL d   1      22.486   5.658   1.098 -0.40 -0.00    -0.021 A 
DOCKED: ATOM     12  C   UNL d   1      23.371   6.702   1.281 -0.34 +0.00    +0.000 A 
DOCKED: ATOM     13  C   UNL d   1      23.758   7.102  -0.010 -0.35 +0.00    +0.070 A 
DOCKED: ATOM     14  C   UNL d   1      21.727   4.928   2.188 -0.53 +0.00    +0.052 C 
DOCKED: ATOM     15  C   UNL d   1      25.077   8.560  -1.540 -0.37 +0.00    +0.066 A 
DOCKED: ATOM     16  C   UNL d   1      26.091   9.479  -1.777 -0.46 -0.00    -0.021 A 
DOCKED: ATOM     17  C   UNL d   1      26.123   9.696  -3.139 -0.48 +0.00    +0.000 A 
DOCKED: ATOM     18  C   UNL d   1      25.123   8.905  -3.701 -0.39 +0.01    +0.070 A 
DOCKED: ATOM     19  C   UNL d   1      26.979  10.149  -0.764 -0.47 +0.00    +0.052 C 
DOCKED: ATOM     20  C   UNL d   1      23.850   8.008  -5.658 -0.30 +0.02    +0.066 A 
DOCKED: ATOM     21  C   UNL d   1      23.421   8.106  -6.989 -0.30 -0.01    -0.025 A 
DOCKED: ATOM     22  C   UNL d   1      22.511   7.085  -7.169 -0.26 -0.01    -0.021 A 
DOCKED: ATOM     23  C   UNL d   1      22.416   6.412  -5.945 -0.21 +0.01    +0.066 A 
DOCKED: ATOM     24  C   UNL d   1      23.836   9.107  -8.043 -0.26 +0.03    +0.051 C 
DOCKED: ATOM     25  N   UNL d   1      21.858   5.203  -3.234 -0.25 -0.02    -0.248 N 
DOCKED: ATOM     26  N   UNL d   1      23.149   6.355  -0.963 -0.21 -0.01    -0.248 N 
DOCKED: ATOM     27  N   UNL d   1      24.509   8.174  -2.724 -0.24 -0.02    -0.248 N 
DOCKED: ATOM     28  N   UNL d   1      23.202   7.007  -5.015 -0.20 -0.04    -0.248 N 
DOCKED: ATOM     29 FE   UNL d   1      23.176   6.682  -2.990 -0.08 +0.00    +0.000 Fe
DOCKED: ENDROOT
DOCKED: BRANCH   6  30
DOCKED: ATOM     30  C   UNL d   1      19.960   2.753  -5.217 -0.53 +0.01    +0.052 C 
DOCKED: BRANCH  30  31
DOCKED: ATOM     31  C   UNL d   1      18.519   3.206  -5.432 -0.51 +0.03    +0.115 C 
DOCKED: BRANCH  31  32
DOCKED: ATOM     32  C   UNL d   1      18.159   3.138  -6.890 -0.42 +0.03    +0.139 C 
DOCKED: ATOM     33  O   UNL d   1      17.084   3.568  -7.287 -0.05 -0.31    -0.650 OA
DOCKED: BRANCH  32  34
DOCKED: ATOM     34  O   UNL d   1      19.018   2.604  -7.774 +0.08 -0.06    -0.776 OA
DOCKED: ATOM     35  H   UNL d   1      19.247   1.667  -7.698 -0.40 -0.04    +0.167 HD
DOCKED: ENDBRANCH  32  34
DOCKED: ENDBRANCH  31  32
DOCKED: ENDBRANCH  30  31
DOCKED: ENDBRANCH   6  30
DOCKED: BRANCH  22  36
DOCKED: ATOM     36  C   UNL d   1      21.741   6.805  -8.432 -0.23 +0.02    +0.052 C 
DOCKED: BRANCH  36  37
DOCKED: ATOM     37  C   UNL d   1      22.514   5.821  -9.297 -0.19 +0.05    +0.115 C 
DOCKED: BRANCH  37  38
DOCKED: ATOM     38  C   UNL d   1      23.827   6.405  -9.735 -0.18 +0.13    +0.139 C 
DOCKED: ATOM     39  O   UNL d   1      23.866   7.329 -10.535 -0.02 -0.78    -0.650 OA
DOCKED: BRANCH  38  40
DOCKED: ATOM     40  O   UNL d   1      24.978   5.909  -9.248 -0.38 -0.96    -0.776 OA
DOCKED: ATOM     41  H   UNL d   1      25.095   5.846  -8.289 -0.15 +0.11    +0.167 HD
DOCKED: ENDBRANCH  38  40
DOCKED: ENDBRANCH  37  38
DOCKED: ENDBRANCH  36  37
DOCKED: ENDBRANCH  22  36
DOCKED: BRANCH  12  42
DOCKED: ATOM     42  C   UNL d   1      23.775   7.259   2.609 -0.52 +0.00    +0.004 C 
DOCKED: ATOM     43  C   UNL d   1      24.187   6.454   3.597 -0.64 -0.00    +0.012 C 
DOCKED: ENDBRANCH  12  42
DOCKED: BRANCH  17  44
DOCKED: ATOM     44  C   UNL d   1      27.062  10.586  -3.858 -0.17 +0.00    +0.004 C 
DOCKED: ATOM     45  C   UNL d   1      27.048  10.662  -5.193 -0.48 +0.00    +0.012 C 
DOCKED: ENDBRANCH  17  44
DOCKED: TORSDOF 10
DOCKED: TER
DOCKED: ENDMDL
________________________________________________________________________________


	BEGINNING GENETIC ALGORITHM DOCKING 48 of 100
Run: 48 Seed: 990044842 1207078386 [ Run 48 of 100 GA/GALS ]
Beginning LAMARCKIAN GENETIC ALGORITHM (LGA), with a maximum of 25000000 energy evaluations.

Final-Value: -18.279


	FINAL GENETIC ALGORITHM DOCKED STATE
	_______________________________________________


Detailed state:  trans 2.706 -6.732 -4.313 quatxyzw -0.291312 -0.708013 -0.065938 -0.639928 center -0.174 -0.001 -0.047 ntor 10 32.1370 -65.7783 85.1605 -119.2320 170.7960 148.0679 -70.0189 69.8806 -177.2019 -159.3089
State:	  2.706  -6.732  -4.313  -0.379 -0.921 -0.086 -100.427     32.14  -65.78   85.16 -119.23  170.80  148.07  -70.02   69.88 -177.20 -159.31

DOCKED: MODEL       48
DOCKED: USER    Run = 48
DOCKED: USER    DPF = D:/Protein_go_brrr/autodock/final/1A3N/heme_Fe/dock.dpf
DOCKED: USER  
DOCKED: USER    Estimated Free Energy of Binding    =  -13.28 kcal/mol  [=(1)+(2)+(3)-(4)]
DOCKED: USER    Estimated Inhibition Constant, Ki   =  183.29 pM (picomolar)  [Temperature = 298.15 K]
DOCKED: USER    
DOCKED: USER    (1) Final Intermolecular Energy     =  -16.27 kcal/mol
DOCKED: USER        vdW + Hbond + desolv Energy     =  -14.18 kcal/mol
DOCKED: USER        Electrostatic Energy            =   -2.09 kcal/mol
DOCKED: USER    (2) Final Total Internal Energy     =   -2.01 kcal/mol
DOCKED: USER    (3) Torsional Free Energy           =   +2.98 kcal/mol
DOCKED: USER    (4) Unbound System's Energy  [=(2)] =   -2.01 kcal/mol
DOCKED: USER    
DOCKED: USER    
DOCKED: USER    NEWDPF move heme_Fe_opt.pdbqt
DOCKED: USER    NEWDPF about -0.174000 -0.001000 -0.047000
DOCKED: USER    NEWDPF tran0 2.706046 -6.732322 -4.313121
DOCKED: USER    NEWDPF quaternion0 -0.291312 -0.708013 -0.065938 -0.639928
DOCKED: USER    NEWDPF axisangle0 -0.379098 -0.921369 -0.085809 -100.427146
DOCKED: USER    NEWDPF quat0 -0.379098 -0.921369 -0.085809 -100.427146
DOCKED: USER    NEWDPF dihe0 32.14 -65.78 85.16 -119.23 170.80 148.07 -70.02 69.88 -177.20 -159.31 
DOCKED: USER  keepresnum = 1 
DOCKED: USER  
DOCKED: REMARK  10 active torsions:
DOCKED: REMARK  status: ('A' for Active; 'I' for Inactive)
DOCKED: REMARK    1  A    between atoms: C_6  and  C_10 
DOCKED: REMARK    2  A    between atoms: C_10  and  C_11 
DOCKED: REMARK    3  A    between atoms: C_11  and  C_12 
DOCKED: REMARK    4  A    between atoms: C_12  and  O_14 
DOCKED: REMARK    5  A    between atoms: C_17  and  C_20 
DOCKED: REMARK    6  A    between atoms: C_24  and  C_27 
DOCKED: REMARK    7  A    between atoms: C_31  and  C_34 
DOCKED: REMARK    8  A    between atoms: C_34  and  C_35 
DOCKED: REMARK    9  A    between atoms: C_35  and  C_36 
DOCKED: REMARK   10  A    between atoms: C_36  and  O_38 
DOCKED: USER                              x       y       z     vdW  Elec       q    Type
DOCKED: USER                           _______ _______ _______ _____ _____    ______ ____
DOCKED: ROOT
DOCKED: ATOM      1  C   UNL d   1       2.237  -7.183  -6.259 -0.31 +0.02    +0.064 C 
DOCKED: ATOM      2  C   UNL d   1       0.712  -8.807  -1.847 -0.40 +0.00    +0.064 A 
DOCKED: ATOM      3  C   UNL d   1       2.770  -4.978   0.196 -0.42 +0.00    +0.064 C 
DOCKED: ATOM      4  C   UNL d   1       4.346  -3.444  -4.052 -0.49 +0.01    +0.064 C 
DOCKED: ATOM      5  C   UNL d   1       1.689  -8.038  -5.198 -0.32 +0.01    +0.066 A 
DOCKED: ATOM      6  C   UNL d   1       1.116  -9.283  -5.403 -0.31 -0.00    -0.021 A 
DOCKED: ATOM      7  C   UNL d   1       0.690  -9.732  -4.177 -0.34 -0.00    -0.025 A 
DOCKED: ATOM      8  C   UNL d   1       1.019  -8.742  -3.271 -0.31 +0.01    +0.066 A 
DOCKED: ATOM      9  C   UNL d   1       0.023 -11.044  -3.901 -0.16 +0.00    +0.051 C 
DOCKED: ATOM     10  C   UNL d   1       1.070  -7.893  -0.943 -0.38 +0.00    +0.066 A 
DOCKED: ATOM     11  C   UNL d   1       0.663  -7.926   0.393 -0.41 -0.00    -0.021 A 
DOCKED: ATOM     12  C   UNL d   1       1.229  -6.823   1.000 -0.31 +0.00    +0.000 A 
DOCKED: ATOM     13  C   UNL d   1       1.953  -6.164  -0.009 -0.36 +0.00    +0.070 A 
DOCKED: ATOM     14  C   UNL d   1      -0.277  -8.920   1.044 -0.60 -0.00    +0.052 C 
DOCKED: ATOM     15  C   UNL d   1       3.427  -4.311  -0.782 -0.37 +0.00    +0.066 A 
DOCKED: ATOM     16  C   UNL d   1       4.278  -3.242  -0.531 -0.46 -0.00    -0.021 A 
DOCKED: ATOM     17  C   UNL d   1       4.731  -2.795  -1.755 -0.48 +0.00    +0.000 A 
DOCKED: ATOM     18  C   UNL d   1       4.141  -3.601  -2.726 -0.39 +0.01    +0.070 A 
DOCKED: ATOM     19  C   UNL d   1       4.633  -2.644   0.804 -0.46 +0.00    +0.052 C 
DOCKED: ATOM     20  C   UNL d   1       3.792  -4.311  -5.099 -0.40 +0.01    +0.066 A 
DOCKED: ATOM     21  C   UNL d   1       3.830  -4.045  -6.475 -0.41 -0.00    -0.025 A 
DOCKED: ATOM     22  C   UNL d   1       3.235  -5.129  -7.086 -0.32 -0.00    -0.021 A 
DOCKED: ATOM     23  C   UNL d   1       2.854  -6.006  -6.064 -0.23 +0.02    +0.066 A 
DOCKED: ATOM     24  C   UNL d   1       4.391  -2.835  -7.187 -0.45 +0.00    +0.051 C 
DOCKED: ATOM     25  N   UNL d   1       1.636  -7.718  -3.893 -0.21 -0.02    -0.248 N 
DOCKED: ATOM     26  N   UNL d   1       1.849  -6.811  -1.195 -0.24 -0.00    -0.248 N 
DOCKED: ATOM     27  N   UNL d   1       3.374  -4.561  -2.127 -0.23 -0.01    -0.248 N 
DOCKED: ATOM     28  N   UNL d   1       3.156  -5.481  -4.851 -0.24 -0.05    -0.248 N 
DOCKED: ATOM     29 FE   UNL d   1       2.503  -6.144  -3.024 -0.08 +0.00    +0.000 Fe
DOCKED: ENDROOT
DOCKED: BRANCH   6  30
DOCKED: ATOM     30  C   UNL d   1       0.998 -10.020  -6.692 -0.24 +0.01    +0.052 C 
DOCKED: BRANCH  30  31
DOCKED: ATOM     31  C   UNL d   1      -0.283  -9.631  -7.422 -0.18 +0.05    +0.115 C 
DOCKED: BRANCH  31  32
DOCKED: ATOM     32  C   UNL d   1       0.036  -8.823  -8.650 -0.15 +0.09    +0.139 C 
DOCKED: ATOM     33  O   UNL d   1      -0.836  -8.556  -9.464 -0.02 -0.63    -0.650 OA
DOCKED: BRANCH  32  34
DOCKED: ATOM     34  O   UNL d   1       1.289  -8.386  -8.863 +0.04 -0.35    -0.776 OA
DOCKED: ATOM     35  H   UNL d   1       1.421  -7.545  -9.323 +0.05 +0.09    +0.167 HD
DOCKED: ENDBRANCH  32  34
DOCKED: ENDBRANCH  31  32
DOCKED: ENDBRANCH  30  31
DOCKED: ENDBRANCH   6  30
DOCKED: BRANCH  22  36
DOCKED: ATOM     36  C   UNL d   1       3.003  -5.288  -8.565 -0.27 +0.01    +0.052 C 
DOCKED: BRANCH  36  37
DOCKED: ATOM     37  C   UNL d   1       2.074  -4.189  -9.060 -0.30 +0.04    +0.115 C 
DOCKED: BRANCH  37  38
DOCKED: ATOM     38  C   UNL d   1       0.738  -4.751  -9.456 -0.24 +0.13    +0.139 C 
DOCKED: ATOM     39  O   UNL d   1      -0.282  -4.092  -9.322 -0.07 -0.92    -0.650 OA
DOCKED: BRANCH  38  40
DOCKED: ATOM     40  O   UNL d   1       0.657  -5.995  -9.961 -0.36 -0.85    -0.776 OA
DOCKED: ATOM     41  H   UNL d   1       0.196  -6.679  -9.455 +0.03 +0.25    +0.167 HD
DOCKED: ENDBRANCH  38  40
DOCKED: ENDBRANCH  37  38
DOCKED: ENDBRANCH  36  37
DOCKED: ENDBRANCH  22  36
DOCKED: BRANCH  12  42
DOCKED: ATOM     42  C   UNL d   1       1.051  -6.451   2.438 -0.49 +0.00    +0.004 C 
DOCKED: ATOM     43  C   UNL d   1       2.101  -6.110   3.197 -0.57 +0.00    +0.012 C 
DOCKED: ENDBRANCH  12  42
DOCKED: BRANCH  17  44
DOCKED: ATOM     44  C   UNL d   1       5.682  -1.683  -1.980 -0.64 +0.00    +0.004 C 
DOCKED: ATOM     45  C   UNL d   1       5.353  -0.426  -1.663 -0.67 +0.00    +0.012 C 
DOCKED: ENDBRANCH  17  44
DOCKED: TORSDOF 10
DOCKED: TER
DOCKED: ENDMDL
________________________________________________________________________________


	BEGINNING GENETIC ALGORITHM DOCKING 49 of 100
Run: 49 Seed: 1426819338 1043393731 [ Run 49 of 100 GA/GALS ]
Beginning LAMARCKIAN GENETIC ALGORITHM (LGA), with a maximum of 25000000 energy evaluations.

Final-Value: -16.554


	FINAL GENETIC ALGORITHM DOCKED STATE
	_______________________________________________


Detailed state:  trans 9.040 12.025 30.738 quatxyzw 0.570464 0.175204 -0.801739 -0.032995 center -0.174 -0.001 -0.047 ntor 10 112.3753 153.1361 46.2896 -161.2311 -109.1236 175.5989 49.4954 94.0198 -12.7355 12.7757
State:	  9.040  12.025  30.738   0.571  0.175 -0.802 -176.218    112.38  153.14   46.29 -161.23 -109.12  175.60   49.50   94.02  -12.74   12.78

DOCKED: MODEL       49
DOCKED: USER    Run = 49
DOCKED: USER    DPF = D:/Protein_go_brrr/autodock/final/1A3N/heme_Fe/dock.dpf
DOCKED: USER  
DOCKED: USER    Estimated Free Energy of Binding    =  -13.03 kcal/mol  [=(1)+(2)+(3)-(4)]
DOCKED: USER    Estimated Inhibition Constant, Ki   =  281.77 pM (picomolar)  [Temperature = 298.15 K]
DOCKED: USER    
DOCKED: USER    (1) Final Intermolecular Energy     =  -16.01 kcal/mol
DOCKED: USER        vdW + Hbond + desolv Energy     =  -13.02 kcal/mol
DOCKED: USER        Electrostatic Energy            =   -2.99 kcal/mol
DOCKED: USER    (2) Final Total Internal Energy     =   -0.54 kcal/mol
DOCKED: USER    (3) Torsional Free Energy           =   +2.98 kcal/mol
DOCKED: USER    (4) Unbound System's Energy  [=(2)] =   -0.54 kcal/mol
DOCKED: USER    
DOCKED: USER    
DOCKED: USER    NEWDPF move heme_Fe_opt.pdbqt
DOCKED: USER    NEWDPF about -0.174000 -0.001000 -0.047000
DOCKED: USER    NEWDPF tran0 9.040418 12.024678 30.738058
DOCKED: USER    NEWDPF quaternion0 0.570464 0.175204 -0.801739 -0.032995
DOCKED: USER    NEWDPF axisangle0 0.570774 0.175300 -0.802176 -176.218387
DOCKED: USER    NEWDPF quat0 0.570774 0.175300 -0.802176 -176.218387
DOCKED: USER    NEWDPF dihe0 112.38 153.14 46.29 -161.23 -109.12 175.60 49.50 94.02 -12.74 12.78 
DOCKED: USER  keepresnum = 1 
DOCKED: USER  
DOCKED: REMARK  10 active torsions:
DOCKED: REMARK  status: ('A' for Active; 'I' for Inactive)
DOCKED: REMARK    1  A    between atoms: C_6  and  C_10 
DOCKED: REMARK    2  A    between atoms: C_10  and  C_11 
DOCKED: REMARK    3  A    between atoms: C_11  and  C_12 
DOCKED: REMARK    4  A    between atoms: C_12  and  O_14 
DOCKED: REMARK    5  A    between atoms: C_17  and  C_20 
DOCKED: REMARK    6  A    between atoms: C_24  and  C_27 
DOCKED: REMARK    7  A    between atoms: C_31  and  C_34 
DOCKED: REMARK    8  A    between atoms: C_34  and  C_35 
DOCKED: REMARK    9  A    between atoms: C_35  and  C_36 
DOCKED: REMARK   10  A    between atoms: C_36  and  O_38 
DOCKED: USER                              x       y       z     vdW  Elec       q    Type
DOCKED: USER                           _______ _______ _______ _____ _____    ______ ____
DOCKED: ROOT
DOCKED: ATOM      1  C   UNL d   1       9.232  11.619  32.740 -0.26 +0.03    +0.064 C 
DOCKED: ATOM      2  C   UNL d   1       7.300  15.331  30.111 -0.32 +0.02    +0.064 A 
DOCKED: ATOM      3  C   UNL d   1       7.431  12.541  26.204 -0.40 +0.00    +0.064 C 
DOCKED: ATOM      4  C   UNL d   1       9.399   8.971  28.708 -0.45 +0.01    +0.064 C 
DOCKED: ATOM      5  C   UNL d   1       8.754  12.951  32.345 -0.24 +0.03    +0.066 A 
DOCKED: ATOM      6  C   UNL d   1       8.688  14.050  33.187 -0.21 -0.01    -0.021 A 
DOCKED: ATOM      7  C   UNL d   1       8.147  15.079  32.457 -0.23 -0.01    -0.025 A 
DOCKED: ATOM      8  C   UNL d   1       7.905  14.569  31.196 -0.28 +0.03    +0.066 A 
DOCKED: ATOM      9  C   UNL d   1       7.901  16.473  32.945 -0.22 +0.03    +0.051 C 
DOCKED: ATOM     10  C   UNL d   1       7.108  14.881  28.870 -0.37 +0.01    +0.066 A 
DOCKED: ATOM     11  C   UNL d   1       6.422  15.595  27.884 -0.47 -0.00    -0.021 A 
DOCKED: ATOM     12  C   UNL d   1       6.431  14.805  26.752 -0.45 +0.00    +0.000 A 
DOCKED: ATOM     13  C   UNL d   1       7.122  13.634  27.112 -0.34 +0.01    +0.070 A 
DOCKED: ATOM     14  C   UNL d   1       5.732  16.936  28.032 -0.36 +0.00    +0.052 C 
DOCKED: ATOM     15  C   UNL d   1       8.049  11.390  26.559 -0.30 +0.00    +0.066 A 
DOCKED: ATOM     16  C   UNL d   1       8.415  10.412  25.642 -0.39 -0.00    -0.021 A 
DOCKED: ATOM     17  C   UNL d   1       8.980   9.380  26.363 -0.43 +0.00    +0.000 A 
DOCKED: ATOM     18  C   UNL d   1       8.941   9.751  27.705 -0.38 +0.01    +0.070 A 
DOCKED: ATOM     19  C   UNL d   1       8.220  10.433  24.150 -0.40 +0.00    +0.052 C 
DOCKED: ATOM     20  C   UNL d   1       9.431   9.354  30.125 -0.40 +0.02    +0.066 A 
DOCKED: ATOM     21  C   UNL d   1       9.713   8.488  31.191 -0.45 -0.01    -0.025 A 
DOCKED: ATOM     22  C   UNL d   1       9.672   9.267  32.330 -0.39 -0.01    -0.021 A 
DOCKED: ATOM     23  C   UNL d   1       9.363  10.568  31.916 -0.28 +0.03    +0.066 A 
DOCKED: ATOM     24  C   UNL d   1      10.002   7.006  31.152 +0.17 +0.01    +0.051 C 
DOCKED: ATOM     25  N   UNL d   1       8.284  13.277  31.129 -0.18 -0.09    -0.248 N 
DOCKED: ATOM     26  N   UNL d   1       7.526  13.676  28.405 -0.22 -0.04    -0.248 N 
DOCKED: ATOM     27  N   UNL d   1       8.409  11.005  27.822 -0.23 -0.03    -0.248 N 
DOCKED: ATOM     28  N   UNL d   1       9.172  10.606  30.575 -0.23 -0.07    -0.248 N 
DOCKED: ATOM     29 FE   UNL d   1       8.350  12.139  29.489 -0.08 +0.00    +0.000 Fe
DOCKED: ENDROOT
DOCKED: BRANCH   6  30
DOCKED: ATOM     30  C   UNL d   1       9.134  14.126  34.606 -0.16 +0.04    +0.052 C 
DOCKED: BRANCH  30  31
DOCKED: ATOM     31  C   UNL d   1      10.653  14.230  34.690 -0.22 +0.09    +0.115 C 
DOCKED: BRANCH  31  32
DOCKED: ATOM     32  C   UNL d   1      11.197  13.224  35.666 -0.09 +0.19    +0.139 C 
DOCKED: ATOM     33  O   UNL d   1      11.657  13.584  36.741 -0.05 -0.74    -0.650 OA
DOCKED: BRANCH  32  34
DOCKED: ATOM     34  O   UNL d   1      11.181  11.915  35.364 -0.30 -1.63    -0.776 OA
DOCKED: ATOM     35  H   UNL d   1      10.331  11.458  35.301 +0.05 +0.20    +0.167 HD
DOCKED: ENDBRANCH  32  34
DOCKED: ENDBRANCH  31  32
DOCKED: ENDBRANCH  30  31
DOCKED: ENDBRANCH   6  30
DOCKED: BRANCH  22  36
DOCKED: ATOM     36  C   UNL d   1       9.872   8.775  33.739 -0.38 +0.03    +0.052 C 
DOCKED: BRANCH  36  37
DOCKED: ATOM     37  C   UNL d   1      11.198   9.289  34.279 -0.01 +0.12    +0.115 C 
DOCKED: BRANCH  37  38
DOCKED: ATOM     38  C   UNL d   1      12.324   8.364  33.913 -0.23 +0.14    +0.139 C 
DOCKED: ATOM     39  O   UNL d   1      13.481   8.647  34.187 -0.42 -0.99    -0.650 OA
DOCKED: BRANCH  38  40
DOCKED: ATOM     40  O   UNL d   1      12.063   7.210  33.272 +0.12 -0.41    -0.776 OA
DOCKED: ATOM     41  H   UNL d   1      11.200   6.791  33.392 -0.45 +0.00    +0.167 HD
DOCKED: ENDBRANCH  38  40
DOCKED: ENDBRANCH  37  38
DOCKED: ENDBRANCH  36  37
DOCKED: ENDBRANCH  22  36
DOCKED: BRANCH  12  42
DOCKED: ATOM     42  C   UNL d   1       5.798  15.170  25.447 -0.52 +0.00    +0.004 C 
DOCKED: ATOM     43  C   UNL d   1       6.509  15.759  24.477 -0.53 +0.00    +0.012 C 
DOCKED: ENDBRANCH  12  42
DOCKED: BRANCH  17  44
DOCKED: ATOM     44  C   UNL d   1       9.539   8.129  25.801 -0.50 +0.00    +0.004 C 
DOCKED: ATOM     45  C   UNL d   1       8.895   6.966  25.945 -0.58 +0.00    +0.012 C 
DOCKED: ENDBRANCH  17  44
DOCKED: TORSDOF 10
DOCKED: TER
DOCKED: ENDMDL
________________________________________________________________________________


	BEGINNING GENETIC ALGORITHM DOCKING 50 of 100
Run: 50 Seed: 1078191367 915195685 [ Run 50 of 100 GA/GALS ]
Beginning LAMARCKIAN GENETIC ALGORITHM (LGA), with a maximum of 25000000 energy evaluations.

Final-Value: -15.210


	FINAL GENETIC ALGORITHM DOCKED STATE
	_______________________________________________


Detailed state:  trans 2.443 -7.093 -4.876 quatxyzw 0.111228 -0.758745 -0.468340 -0.438853 center -0.174 -0.001 -0.047 ntor 10 179.6842 116.5456 -117.1421 -113.7780 -104.5759 178.0347 -138.2032 -64.4315 160.8122 19.7991
State:	  2.443  -7.093  -4.876   0.124 -0.844 -0.521 -127.939    179.68  116.55 -117.14 -113.78 -104.58  178.03 -138.20  -64.43  160.81   19.80

DOCKED: MODEL       50
DOCKED: USER    Run = 50
DOCKED: USER    DPF = D:/Protein_go_brrr/autodock/final/1A3N/heme_Fe/dock.dpf
DOCKED: USER  
DOCKED: USER    Estimated Free Energy of Binding    =  -10.39 kcal/mol  [=(1)+(2)+(3)-(4)]
DOCKED: USER    Estimated Inhibition Constant, Ki   =   24.04 nM (nanomolar)  [Temperature = 298.15 K]
DOCKED: USER    
DOCKED: USER    (1) Final Intermolecular Energy     =  -13.38 kcal/mol
DOCKED: USER        vdW + Hbond + desolv Energy     =  -12.21 kcal/mol
DOCKED: USER        Electrostatic Energy            =   -1.17 kcal/mol
DOCKED: USER    (2) Final Total Internal Energy     =   -1.83 kcal/mol
DOCKED: USER    (3) Torsional Free Energy           =   +2.98 kcal/mol
DOCKED: USER    (4) Unbound System's Energy  [=(2)] =   -1.83 kcal/mol
DOCKED: USER    
DOCKED: USER    
DOCKED: USER    NEWDPF move heme_Fe_opt.pdbqt
DOCKED: USER    NEWDPF about -0.174000 -0.001000 -0.047000
DOCKED: USER    NEWDPF tran0 2.442840 -7.093003 -4.875516
DOCKED: USER    NEWDPF quaternion0 0.111228 -0.758745 -0.468340 -0.438853
DOCKED: USER    NEWDPF axisangle0 0.123784 -0.844402 -0.521213 -127.938532
DOCKED: USER    NEWDPF quat0 0.123784 -0.844402 -0.521213 -127.938532
DOCKED: USER    NEWDPF dihe0 179.68 116.55 -117.14 -113.78 -104.58 178.03 -138.20 -64.43 160.81 19.80 
DOCKED: USER  keepresnum = 1 
DOCKED: USER  
DOCKED: REMARK  10 active torsions:
DOCKED: REMARK  status: ('A' for Active; 'I' for Inactive)
DOCKED: REMARK    1  A    between atoms: C_6  and  C_10 
DOCKED: REMARK    2  A    between atoms: C_10  and  C_11 
DOCKED: REMARK    3  A    between atoms: C_11  and  C_12 
DOCKED: REMARK    4  A    between atoms: C_12  and  O_14 
DOCKED: REMARK    5  A    between atoms: C_17  and  C_20 
DOCKED: REMARK    6  A    between atoms: C_24  and  C_27 
DOCKED: REMARK    7  A    between atoms: C_31  and  C_34 
DOCKED: REMARK    8  A    between atoms: C_34  and  C_35 
DOCKED: REMARK    9  A    between atoms: C_35  and  C_36 
DOCKED: REMARK   10  A    between atoms: C_36  and  O_38 
DOCKED: USER                              x       y       z     vdW  Elec       q    Type
DOCKED: USER                           _______ _______ _______ _____ _____    ______ ____
DOCKED: ROOT
DOCKED: ATOM      1  C   UNL d   1       3.188  -5.650  -6.130 -0.34 +0.01    +0.064 C 
DOCKED: ATOM      2  C   UNL d   1       0.377  -9.670  -6.732 -0.21 +0.02    +0.064 A 
DOCKED: ATOM      3  C   UNL d   1      -0.346  -9.791  -1.985 -0.41 +0.00    +0.064 C 
DOCKED: ATOM      4  C   UNL d   1       2.456  -5.963  -1.369 -0.39 -0.00    +0.064 C 
DOCKED: ATOM      5  C   UNL d   1       2.532  -6.819  -6.730 -0.25 +0.02    +0.066 A 
DOCKED: ATOM      6  C   UNL d   1       2.617  -7.175  -8.067 -0.23 -0.01    -0.021 A 
DOCKED: ATOM      7  C   UNL d   1       1.833  -8.289  -8.234 -0.21 -0.01    -0.025 A 
DOCKED: ATOM      8  C   UNL d   1       1.299  -8.572  -6.991 -0.24 +0.02    +0.066 A 
DOCKED: ATOM      9  C   UNL d   1       1.631  -9.043  -9.512 -0.13 +0.02    +0.051 C 
DOCKED: ATOM     10  C   UNL d   1      -0.108 -10.000  -5.533 -0.24 +0.01    +0.066 A 
DOCKED: ATOM     11  C   UNL d   1      -1.078 -10.985  -5.333 -0.22 -0.00    -0.021 A 
DOCKED: ATOM     12  C   UNL d   1      -1.316 -11.027  -3.974 -0.32 +0.00    +0.000 A 
DOCKED: ATOM     13  C   UNL d   1      -0.477 -10.051  -3.410 -0.36 +0.00    +0.070 A 
DOCKED: ATOM     14  C   UNL d   1      -1.793 -11.798  -6.392 -0.15 +0.01    +0.052 C 
DOCKED: ATOM     15  C   UNL d   1       0.421  -8.817  -1.441 -0.42 +0.00    +0.066 A 
DOCKED: ATOM     16  C   UNL d   1       0.596  -8.665  -0.072 -0.48 -0.00    -0.021 A 
DOCKED: ATOM     17  C   UNL d   1       1.401  -7.560   0.109 -0.44 +0.00    +0.000 A 
DOCKED: ATOM     18  C   UNL d   1       1.696  -7.060  -1.158 -0.34 +0.00    +0.070 A 
DOCKED: ATOM     19  C   UNL d   1       0.010  -9.510   1.028 -0.62 -0.00    +0.052 C 
DOCKED: ATOM     20  C   UNL d   1       2.837  -5.444  -2.688 -0.27 +0.00    +0.066 A 
DOCKED: ATOM     21  C   UNL d   1       3.451  -4.206  -2.924 -0.41 -0.00    -0.025 A 
DOCKED: ATOM     22  C   UNL d   1       3.662  -4.143  -4.286 -0.43 -0.00    -0.021 A 
DOCKED: ATOM     23  C   UNL d   1       3.165  -5.336  -4.825 -0.26 +0.01    +0.066 A 
DOCKED: ATOM     24  C   UNL d   1       3.820  -3.130  -1.929 -0.45 +0.00    +0.051 C 
DOCKED: ATOM     25  N   UNL d   1       1.733  -7.682  -6.077 -0.19 -0.07    -0.248 N 
DOCKED: ATOM     26  N   UNL d   1       0.254  -9.418  -4.361 -0.20 -0.04    -0.248 N 
DOCKED: ATOM     27  N   UNL d   1       1.130  -7.857  -2.113 -0.24 -0.01    -0.248 N 
DOCKED: ATOM     28  N   UNL d   1       2.623  -6.106  -3.850 -0.19 -0.02    -0.248 N 
DOCKED: ATOM     29 FE   UNL d   1       1.439  -7.761  -4.104 -0.08 +0.00    +0.000 Fe
DOCKED: ENDROOT
DOCKED: BRANCH   6  30
DOCKED: ATOM     30  C   UNL d   1       3.419  -6.503  -9.129 -0.16 +0.01    +0.052 C 
DOCKED: BRANCH  30  31
DOCKED: ATOM     31  C   UNL d   1       2.509  -5.784 -10.119 -0.13 +0.04    +0.115 C 
DOCKED: BRANCH  31  32
DOCKED: ATOM     32  C   UNL d   1       1.399  -5.075  -9.394 -0.25 +0.09    +0.139 C 
DOCKED: ATOM     33  O   UNL d   1       0.263  -5.528  -9.400 -0.42 -1.01    -0.650 OA
DOCKED: BRANCH  32  34
DOCKED: ATOM     34  O   UNL d   1       1.646  -3.933  -8.731 -0.00 -0.34    -0.776 OA
DOCKED: ATOM     35  H   UNL d   1       2.547  -3.580  -8.725 +0.08 +0.04    +0.167 HD
DOCKED: ENDBRANCH  32  34
DOCKED: ENDBRANCH  31  32
DOCKED: ENDBRANCH  30  31
DOCKED: ENDBRANCH   6  30
DOCKED: BRANCH  22  36
DOCKED: ATOM     36  C   UNL d   1       4.262  -2.979  -5.030 -0.39 +0.01    +0.052 C 
DOCKED: BRANCH  36  37
DOCKED: ATOM     37  C   UNL d   1       5.567  -3.408  -5.686 -0.45 +0.01    +0.115 C 
DOCKED: BRANCH  37  38
DOCKED: ATOM     38  C   UNL d   1       5.458  -3.359  -7.184 -0.44 +0.00    +0.139 C 
DOCKED: ATOM     39  O   UNL d   1       6.418  -3.633  -7.890 -0.07 -0.00    -0.650 OA
DOCKED: BRANCH  38  40
DOCKED: ATOM     40  O   UNL d   1       4.295  -3.008  -7.761 +0.03 -0.01    -0.776 OA
DOCKED: ATOM     41  H   UNL d   1       3.518  -3.569  -7.633 +0.09 +0.02    +0.167 HD
DOCKED: ENDBRANCH  38  40
DOCKED: ENDBRANCH  37  38
DOCKED: ENDBRANCH  36  37
DOCKED: ENDBRANCH  22  36
DOCKED: BRANCH  12  42
DOCKED: ATOM     42  C   UNL d   1      -2.297 -11.937  -3.305 -0.17 -0.00    +0.004 C 
DOCKED: ATOM     43  C   UNL d   1      -3.616 -11.769  -3.469 -0.29 -0.00    +0.012 C 
DOCKED: ENDBRANCH  12  42
DOCKED: BRANCH  17  44
DOCKED: ATOM     44  C   UNL d   1       1.875  -7.029   1.407 -0.47 +0.00    +0.004 C 
DOCKED: ATOM     45  C   UNL d   1       1.006  -6.624   2.339 -0.49 +0.00    +0.012 C 
DOCKED: ENDBRANCH  17  44
DOCKED: TORSDOF 10
DOCKED: TER
DOCKED: ENDMDL
________________________________________________________________________________


	BEGINNING GENETIC ALGORITHM DOCKING 51 of 100
Run: 51 Seed: 448786636 978954724 [ Run 51 of 100 GA/GALS ]
Beginning LAMARCKIAN GENETIC ALGORITHM (LGA), with a maximum of 25000000 energy evaluations.

Final-Value: -17.150


	FINAL GENETIC ALGORITHM DOCKED STATE
	_______________________________________________


Detailed state:  trans 2.170 -6.249 -4.883 quatxyzw -0.706743 0.092605 -0.648280 0.267715 center -0.174 -0.001 -0.047 ntor 10 -133.3042 42.2925 72.4390 -114.1894 -118.0287 -92.1641 16.6679 -82.5124 -1.3392 -9.9944
State:	  2.170  -6.249  -4.883  -0.734  0.096 -0.673 148.943   -133.30   42.29   72.44 -114.19 -118.03  -92.16   16.67  -82.51   -1.34   -9.99

DOCKED: MODEL       51
DOCKED: USER    Run = 51
DOCKED: USER    DPF = D:/Protein_go_brrr/autodock/final/1A3N/heme_Fe/dock.dpf
DOCKED: USER  
DOCKED: USER    Estimated Free Energy of Binding    =  -12.00 kcal/mol  [=(1)+(2)+(3)-(4)]
DOCKED: USER    Estimated Inhibition Constant, Ki   =    1.60 nM (nanomolar)  [Temperature = 298.15 K]
DOCKED: USER    
DOCKED: USER    (1) Final Intermolecular Energy     =  -14.98 kcal/mol
DOCKED: USER        vdW + Hbond + desolv Energy     =  -13.45 kcal/mol
DOCKED: USER        Electrostatic Energy            =   -1.54 kcal/mol
DOCKED: USER    (2) Final Total Internal Energy     =   -2.17 kcal/mol
DOCKED: USER    (3) Torsional Free Energy           =   +2.98 kcal/mol
DOCKED: USER    (4) Unbound System's Energy  [=(2)] =   -2.17 kcal/mol
DOCKED: USER    
DOCKED: USER    
DOCKED: USER    NEWDPF move heme_Fe_opt.pdbqt
DOCKED: USER    NEWDPF about -0.174000 -0.001000 -0.047000
DOCKED: USER    NEWDPF tran0 2.169966 -6.248708 -4.883376
DOCKED: USER    NEWDPF quaternion0 -0.706743 0.092605 -0.648280 0.267715
DOCKED: USER    NEWDPF axisangle0 -0.733518 0.096113 -0.672840 148.943350
DOCKED: USER    NEWDPF quat0 -0.733518 0.096113 -0.672840 148.943350
DOCKED: USER    NEWDPF dihe0 -133.30 42.29 72.44 -114.19 -118.03 -92.16 16.67 -82.51 -1.34 -9.99 
DOCKED: USER  keepresnum = 1 
DOCKED: USER  
DOCKED: REMARK  10 active torsions:
DOCKED: REMARK  status: ('A' for Active; 'I' for Inactive)
DOCKED: REMARK    1  A    between atoms: C_6  and  C_10 
DOCKED: REMARK    2  A    between atoms: C_10  and  C_11 
DOCKED: REMARK    3  A    between atoms: C_11  and  C_12 
DOCKED: REMARK    4  A    between atoms: C_12  and  O_14 
DOCKED: REMARK    5  A    between atoms: C_17  and  C_20 
DOCKED: REMARK    6  A    between atoms: C_24  and  C_27 
DOCKED: REMARK    7  A    between atoms: C_31  and  C_34 
DOCKED: REMARK    8  A    between atoms: C_34  and  C_35 
DOCKED: REMARK    9  A    between atoms: C_35  and  C_36 
DOCKED: REMARK   10  A    between atoms: C_36  and  O_38 
DOCKED: USER                              x       y       z     vdW  Elec       q    Type
DOCKED: USER                           _______ _______ _______ _____ _____    ______ ____
DOCKED: ROOT
DOCKED: ATOM      1  C   UNL d   1       2.377  -6.893  -6.821 -0.28 +0.02    +0.064 C 
DOCKED: ATOM      2  C   UNL d   1       4.318  -3.215  -4.149 -0.40 +0.01    +0.064 A 
DOCKED: ATOM      3  C   UNL d   1       2.743  -5.375  -0.159 -0.42 +0.00    +0.064 C 
DOCKED: ATOM      4  C   UNL d   1       0.766  -8.890  -2.732 -0.43 +0.00    +0.064 C 
DOCKED: ATOM      5  C   UNL d   1       2.997  -5.615  -6.444 -0.29 +0.02    +0.066 A 
DOCKED: ATOM      6  C   UNL d   1       3.468  -4.670  -7.341 -0.34 -0.00    -0.021 A 
DOCKED: ATOM      7  C   UNL d   1       4.011  -3.651  -6.599 -0.43 -0.00    -0.025 A 
DOCKED: ATOM      8  C   UNL d   1       3.849  -4.013  -5.275 -0.40 +0.01    +0.066 A 
DOCKED: ATOM      9  C   UNL d   1       4.628  -2.397  -7.138 -0.24 -0.00    +0.051 C 
DOCKED: ATOM     10  C   UNL d   1       4.125  -3.513  -2.863 -0.39 +0.01    +0.066 A 
DOCKED: ATOM     11  C   UNL d   1       4.685  -2.790  -1.807 -0.46 -0.00    -0.021 A 
DOCKED: ATOM     12  C   UNL d   1       4.259  -3.403  -0.646 -0.47 +0.00    +0.000 A 
DOCKED: ATOM     13  C   UNL d   1       3.460  -4.484  -1.057 -0.36 +0.00    +0.070 A 
DOCKED: ATOM     14  C   UNL d   1       5.635  -1.614  -1.901 -0.60 +0.00    +0.052 C 
DOCKED: ATOM     15  C   UNL d   1       2.015  -6.448  -0.549 -0.37 +0.00    +0.066 A 
DOCKED: ATOM     16  C   UNL d   1       1.264  -7.215   0.332 -0.37 -0.00    -0.021 A 
DOCKED: ATOM     17  C   UNL d   1       0.695  -8.232  -0.407 -0.46 +0.00    +0.000 A 
DOCKED: ATOM     18  C   UNL d   1       1.118  -8.062  -1.724 -0.35 +0.00    +0.070 A 
DOCKED: ATOM     19  C   UNL d   1       1.104  -7.018   1.816 -0.45 +0.00    +0.052 C 
DOCKED: ATOM     20  C   UNL d   1       1.141  -8.708  -4.140 -0.32 +0.01    +0.066 A 
DOCKED: ATOM     21  C   UNL d   1       0.955  -9.656  -5.156 -0.31 -0.00    -0.025 A 
DOCKED: ATOM     22  C   UNL d   1       1.409  -9.061  -6.315 -0.28 -0.00    -0.021 A 
DOCKED: ATOM     23  C   UNL d   1       1.858  -7.783  -5.961 -0.30 +0.02    +0.066 A 
DOCKED: ATOM     24  C   UNL d   1       0.385 -11.052  -5.052 -0.20 +0.01    +0.051 C 
DOCKED: ATOM     25  N   UNL d   1       3.224  -5.203  -5.185 -0.23 -0.06    -0.248 N 
DOCKED: ATOM     26  N   UNL d   1       3.385  -4.557  -2.409 -0.23 -0.02    -0.248 N 
DOCKED: ATOM     27  N   UNL d   1       1.893  -6.941  -1.820 -0.22 +0.00    -0.248 N 
DOCKED: ATOM     28  N   UNL d   1       1.733  -7.591  -4.625 -0.23 -0.04    -0.248 N 
DOCKED: ATOM     29 FE   UNL d   1       2.558  -6.075  -3.517 -0.08 +0.00    +0.000 Fe
DOCKED: ENDROOT
DOCKED: BRANCH   6  30
DOCKED: ATOM     30  C   UNL d   1       3.390  -4.721  -8.829 -0.27 +0.01    +0.052 C 
DOCKED: BRANCH  30  31
DOCKED: ATOM     31  C   UNL d   1       2.079  -4.117  -9.321 -0.29 +0.04    +0.115 C 
DOCKED: BRANCH  31  32
DOCKED: ATOM     32  C   UNL d   1       1.814  -4.524 -10.744 -0.15 +0.06    +0.139 C 
DOCKED: ATOM     33  O   UNL d   1       1.739  -3.684 -11.630 +0.04 -0.24    -0.650 OA
DOCKED: BRANCH  32  34
DOCKED: ATOM     34  O   UNL d   1       1.656  -5.822 -11.056 +0.05 -0.38    -0.776 OA
DOCKED: ATOM     35  H   UNL d   1       1.073  -6.368 -10.510 +0.04 +0.12    +0.167 HD
DOCKED: ENDBRANCH  32  34
DOCKED: ENDBRANCH  31  32
DOCKED: ENDBRANCH  30  31
DOCKED: ENDBRANCH   6  30
DOCKED: BRANCH  22  36
DOCKED: ATOM     36  C   UNL d   1       1.454  -9.706  -7.675 -0.21 +0.01    +0.052 C 
DOCKED: BRANCH  36  37
DOCKED: ATOM     37  C   UNL d   1       0.123  -9.504  -8.383 -0.16 +0.05    +0.115 C 
DOCKED: BRANCH  37  38
DOCKED: ATOM     38  C   UNL d   1       0.179  -8.324  -9.311 -0.15 +0.10    +0.139 C 
DOCKED: ATOM     39  O   UNL d   1      -0.155  -7.212  -8.929 -0.22 -0.98    -0.650 OA
DOCKED: BRANCH  38  40
DOCKED: ATOM     40  O   UNL d   1       0.598  -8.486 -10.579 +0.02 -0.40    -0.776 OA
DOCKED: ATOM     41  H   UNL d   1       1.191  -7.827 -10.966 +0.03 +0.08    +0.167 HD
DOCKED: ENDBRANCH  38  40
DOCKED: ENDBRANCH  37  38
DOCKED: ENDBRANCH  36  37
DOCKED: ENDBRANCH  22  36
DOCKED: BRANCH  12  42
DOCKED: ATOM     42  C   UNL d   1       4.628  -2.967   0.737 -0.54 +0.00    +0.004 C 
DOCKED: ATOM     43  C   UNL d   1       3.688  -2.603   1.618 -0.51 -0.00    +0.012 C 
DOCKED: ENDBRANCH  12  42
DOCKED: BRANCH  17  44
DOCKED: ATOM     44  C   UNL d   1      -0.210  -9.284   0.109 -0.58 -0.00    +0.004 C 
DOCKED: ATOM     45  C   UNL d   1       0.196 -10.129   1.062 -0.62 -0.00    +0.012 C 
DOCKED: ENDBRANCH  17  44
DOCKED: TORSDOF 10
DOCKED: TER
DOCKED: ENDMDL
________________________________________________________________________________


	BEGINNING GENETIC ALGORITHM DOCKING 52 of 100
Run: 52 Seed: 1311118968 1958161950 [ Run 52 of 100 GA/GALS ]
Beginning LAMARCKIAN GENETIC ALGORITHM (LGA), with a maximum of 25000000 energy evaluations.

Final-Value: -15.812


	FINAL GENETIC ALGORITHM DOCKED STATE
	_______________________________________________


Detailed state:  trans 2.698 -5.257 -3.301 quatxyzw 0.441116 -0.509164 0.712827 0.195055 center -0.174 -0.001 -0.047 ntor 10 -169.8471 141.7240 -177.5063 -161.2608 -79.2811 66.6820 -51.9919 115.8824 19.7009 12.2587
State:	  2.698  -5.257  -3.301   0.450 -0.519  0.727 157.504   -169.85  141.72 -177.51 -161.26  -79.28   66.68  -51.99  115.88   19.70   12.26

DOCKED: MODEL       52
DOCKED: USER    Run = 52
DOCKED: USER    DPF = D:/Protein_go_brrr/autodock/final/1A3N/heme_Fe/dock.dpf
DOCKED: USER  
DOCKED: USER    Estimated Free Energy of Binding    =  -12.12 kcal/mol  [=(1)+(2)+(3)-(4)]
DOCKED: USER    Estimated Inhibition Constant, Ki   =    1.30 nM (nanomolar)  [Temperature = 298.15 K]
DOCKED: USER    
DOCKED: USER    (1) Final Intermolecular Energy     =  -15.10 kcal/mol
DOCKED: USER        vdW + Hbond + desolv Energy     =  -14.97 kcal/mol
DOCKED: USER        Electrostatic Energy            =   -0.13 kcal/mol
DOCKED: USER    (2) Final Total Internal Energy     =   -0.71 kcal/mol
DOCKED: USER    (3) Torsional Free Energy           =   +2.98 kcal/mol
DOCKED: USER    (4) Unbound System's Energy  [=(2)] =   -0.71 kcal/mol
DOCKED: USER    
DOCKED: USER    
DOCKED: USER    NEWDPF move heme_Fe_opt.pdbqt
DOCKED: USER    NEWDPF about -0.174000 -0.001000 -0.047000
DOCKED: USER    NEWDPF tran0 2.697768 -5.257225 -3.301425
DOCKED: USER    NEWDPF quaternion0 0.441116 -0.509164 0.712827 0.195055
DOCKED: USER    NEWDPF axisangle0 0.449755 -0.519136 0.726787 157.504100
DOCKED: USER    NEWDPF quat0 0.449755 -0.519136 0.726787 157.504100
DOCKED: USER    NEWDPF dihe0 -169.85 141.72 -177.51 -161.26 -79.28 66.68 -51.99 115.88 19.70 12.26 
DOCKED: USER  keepresnum = 1 
DOCKED: USER  
DOCKED: REMARK  10 active torsions:
DOCKED: REMARK  status: ('A' for Active; 'I' for Inactive)
DOCKED: REMARK    1  A    between atoms: C_6  and  C_10 
DOCKED: REMARK    2  A    between atoms: C_10  and  C_11 
DOCKED: REMARK    3  A    between atoms: C_11  and  C_12 
DOCKED: REMARK    4  A    between atoms: C_12  and  O_14 
DOCKED: REMARK    5  A    between atoms: C_17  and  C_20 
DOCKED: REMARK    6  A    between atoms: C_24  and  C_27 
DOCKED: REMARK    7  A    between atoms: C_31  and  C_34 
DOCKED: REMARK    8  A    between atoms: C_34  and  C_35 
DOCKED: REMARK    9  A    between atoms: C_35  and  C_36 
DOCKED: REMARK   10  A    between atoms: C_36  and  O_38 
DOCKED: USER                              x       y       z     vdW  Elec       q    Type
DOCKED: USER                           _______ _______ _______ _____ _____    ______ ____
DOCKED: ROOT
DOCKED: ATOM      1  C   UNL d   1       4.207  -4.087  -4.052 -0.47 +0.01    +0.064 C 
DOCKED: ATOM      2  C   UNL d   1       2.663  -5.288   0.487 -0.35 +0.00    +0.064 A 
DOCKED: ATOM      3  C   UNL d   1       0.064  -8.851  -1.414 -0.49 +0.00    +0.064 C 
DOCKED: ATOM      4  C   UNL d   1       1.463  -7.640  -5.826 -0.27 +0.02    +0.064 C 
DOCKED: ATOM      5  C   UNL d   1       3.948  -4.042  -2.606 -0.38 +0.00    +0.066 A 
DOCKED: ATOM      6  C   UNL d   1       4.440  -3.076  -1.744 -0.44 -0.00    -0.021 A 
DOCKED: ATOM      7  C   UNL d   1       4.014  -3.412  -0.483 -0.44 -0.00    -0.025 A 
DOCKED: ATOM      8  C   UNL d   1       3.277  -4.572  -0.624 -0.37 +0.00    +0.066 A 
DOCKED: ATOM      9  C   UNL d   1       4.288  -2.647   0.775 -0.56 +0.00    +0.051 C 
DOCKED: ATOM     10  C   UNL d   1       1.899  -6.376   0.372 -0.37 +0.00    +0.066 A 
DOCKED: ATOM     11  C   UNL d   1       1.420  -7.105   1.463 -0.41 -0.00    -0.021 A 
DOCKED: ATOM     12  C   UNL d   1       0.681  -8.148   0.941 -0.48 -0.00    +0.000 A 
DOCKED: ATOM     13  C   UNL d   1       0.756  -8.004  -0.455 -0.38 +0.00    +0.070 A 
DOCKED: ATOM     14  C   UNL d   1       1.709  -6.860   2.931 -0.41 +0.00    +0.052 C 
DOCKED: ATOM     15  C   UNL d   1       0.174  -8.749  -2.760 -0.40 +0.01    +0.066 A 
DOCKED: ATOM     16  C   UNL d   1      -0.580  -9.511  -3.643 -0.41 -0.00    -0.021 A 
DOCKED: ATOM     17  C   UNL d   1      -0.176  -9.166  -4.916 -0.34 +0.00    +0.000 A 
DOCKED: ATOM     18  C   UNL d   1       0.820  -8.202  -4.779 -0.34 +0.01    +0.070 A 
DOCKED: ATOM     19  C   UNL d   1      -1.623 -10.543  -3.306 -0.38 -0.00    +0.052 C 
DOCKED: ATOM     20  C   UNL d   1       2.472  -6.579  -5.723 -0.26 +0.02    +0.066 A 
DOCKED: ATOM     21  C   UNL d   1       3.286  -6.131  -6.773 -0.20 -0.01    -0.025 A 
DOCKED: ATOM     22  C   UNL d   1       4.051  -5.110  -6.249 -0.35 -0.00    -0.021 A 
DOCKED: ATOM     23  C   UNL d   1       3.681  -4.980  -4.905 -0.38 +0.01    +0.066 A 
DOCKED: ATOM     24  C   UNL d   1       3.351  -6.633  -8.197 -0.18 +0.01    +0.051 C 
DOCKED: ATOM     25  N   UNL d   1       3.231  -4.947  -1.918 -0.23 -0.01    -0.248 N 
DOCKED: ATOM     26  N   UNL d   1       1.505  -6.929  -0.802 -0.24 -0.01    -0.248 N 
DOCKED: ATOM     27  N   UNL d   1       1.005  -7.913  -3.456 -0.24 -0.03    -0.248 N 
DOCKED: ATOM     28  N   UNL d   1       2.750  -5.909  -4.578 -0.19 -0.05    -0.248 N 
DOCKED: ATOM     29 FE   UNL d   1       2.127  -6.420  -2.692 -0.08 +0.00    +0.000 Fe
DOCKED: ENDROOT
DOCKED: BRANCH   6  30
DOCKED: ATOM     30  C   UNL d   1       5.257  -1.881  -2.100 -0.58 +0.00    +0.052 C 
DOCKED: BRANCH  30  31
DOCKED: ATOM     31  C   UNL d   1       4.439  -0.603  -1.949 -0.49 +0.00    +0.115 C 
DOCKED: BRANCH  31  32
DOCKED: ATOM     32  C   UNL d   1       5.174   0.394  -1.097 -0.61 -0.01    +0.139 C 
DOCKED: ATOM     33  O   UNL d   1       5.174   0.292   0.122 +0.02 +0.04    -0.650 OA
DOCKED: BRANCH  32  34
DOCKED: ATOM     34  O   UNL d   1       5.841   1.410  -1.670 +0.43 +0.05    -0.776 OA
DOCKED: ATOM     35  H   UNL d   1       5.720   1.576  -2.616 -0.40 -0.04    +0.167 HD
DOCKED: ENDBRANCH  32  34
DOCKED: ENDBRANCH  31  32
DOCKED: ENDBRANCH  30  31
DOCKED: ENDBRANCH   6  30
DOCKED: BRANCH  22  36
DOCKED: ATOM     36  C   UNL d   1       5.112  -4.337  -6.987 -0.43 +0.00    +0.052 C 
DOCKED: BRANCH  36  37
DOCKED: ATOM     37  C   UNL d   1       4.629  -2.917  -7.241 -0.42 +0.00    +0.115 C 
DOCKED: BRANCH  37  38
DOCKED: ATOM     38  C   UNL d   1       3.445  -2.908  -8.165 -0.37 +0.01    +0.139 C 
DOCKED: ATOM     39  O   UNL d   1       2.375  -3.385  -7.815 -0.08 -0.15    -0.650 OA
DOCKED: BRANCH  38  40
DOCKED: ATOM     40  O   UNL d   1       3.556  -2.373  -9.394 +0.04 +0.01    -0.776 OA
DOCKED: ATOM     41  H   UNL d   1       4.083  -1.570  -9.511 -0.44 -0.06    +0.167 HD
DOCKED: ENDBRANCH  38  40
DOCKED: ENDBRANCH  37  38
DOCKED: ENDBRANCH  36  37
DOCKED: ENDBRANCH  22  36
DOCKED: BRANCH  12  42
DOCKED: ATOM     42  C   UNL d   1      -0.013  -9.195   1.753 -0.69 -0.00    +0.004 C 
DOCKED: ATOM     43  C   UNL d   1       0.153 -10.497   1.486 -0.49 -0.00    +0.012 C 
DOCKED: ENDBRANCH  12  42
DOCKED: BRANCH  17  44
DOCKED: ATOM     44  C   UNL d   1      -0.721  -9.709  -6.180 -0.18 +0.00    +0.004 C 
DOCKED: ATOM     45  C   UNL d   1      -0.008 -10.561  -6.924 -0.21 +0.00    +0.012 C 
DOCKED: ENDBRANCH  17  44
DOCKED: TORSDOF 10
DOCKED: TER
DOCKED: ENDMDL
________________________________________________________________________________


	BEGINNING GENETIC ALGORITHM DOCKING 53 of 100
Run: 53 Seed: 1342146861 1782121192 [ Run 53 of 100 GA/GALS ]
Beginning LAMARCKIAN GENETIC ALGORITHM (LGA), with a maximum of 25000000 energy evaluations.

Final-Value: -17.488


	FINAL GENETIC ALGORITHM DOCKED STATE
	_______________________________________________


Detailed state:  trans 7.604 12.463 29.964 quatxyzw 0.233446 -0.682861 -0.011739 0.692146 center -0.174 -0.001 -0.047 ntor 10 17.7992 -84.1954 35.5441 -119.0973 -148.2589 -124.2361 -68.6137 23.9778 165.1872 121.4485
State:	  7.604  12.463  29.964   0.323 -0.946 -0.016 92.399     17.80  -84.20   35.54 -119.10 -148.26 -124.24  -68.61   23.98  165.19  121.45

DOCKED: MODEL       53
DOCKED: USER    Run = 53
DOCKED: USER    DPF = D:/Protein_go_brrr/autodock/final/1A3N/heme_Fe/dock.dpf
DOCKED: USER  
DOCKED: USER    Estimated Free Energy of Binding    =  -12.98 kcal/mol  [=(1)+(2)+(3)-(4)]
DOCKED: USER    Estimated Inhibition Constant, Ki   =  308.24 pM (picomolar)  [Temperature = 298.15 K]
DOCKED: USER    
DOCKED: USER    (1) Final Intermolecular Energy     =  -15.96 kcal/mol
DOCKED: USER        vdW + Hbond + desolv Energy     =  -13.57 kcal/mol
DOCKED: USER        Electrostatic Energy            =   -2.39 kcal/mol
DOCKED: USER    (2) Final Total Internal Energy     =   -1.53 kcal/mol
DOCKED: USER    (3) Torsional Free Energy           =   +2.98 kcal/mol
DOCKED: USER    (4) Unbound System's Energy  [=(2)] =   -1.53 kcal/mol
DOCKED: USER    
DOCKED: USER    
DOCKED: USER    NEWDPF move heme_Fe_opt.pdbqt
DOCKED: USER    NEWDPF about -0.174000 -0.001000 -0.047000
DOCKED: USER    NEWDPF tran0 7.603523 12.463378 29.964193
DOCKED: USER    NEWDPF quaternion0 0.233446 -0.682861 -0.011739 0.692146
DOCKED: USER    NEWDPF axisangle0 0.323441 -0.946108 -0.016264 92.399499
DOCKED: USER    NEWDPF quat0 0.323441 -0.946108 -0.016264 92.399499
DOCKED: USER    NEWDPF dihe0 17.80 -84.20 35.54 -119.10 -148.26 -124.24 -68.61 23.98 165.19 121.45 
DOCKED: USER  keepresnum = 1 
DOCKED: USER  
DOCKED: REMARK  10 active torsions:
DOCKED: REMARK  status: ('A' for Active; 'I' for Inactive)
DOCKED: REMARK    1  A    between atoms: C_6  and  C_10 
DOCKED: REMARK    2  A    between atoms: C_10  and  C_11 
DOCKED: REMARK    3  A    between atoms: C_11  and  C_12 
DOCKED: REMARK    4  A    between atoms: C_12  and  O_14 
DOCKED: REMARK    5  A    between atoms: C_17  and  C_20 
DOCKED: REMARK    6  A    between atoms: C_24  and  C_27 
DOCKED: REMARK    7  A    between atoms: C_31  and  C_34 
DOCKED: REMARK    8  A    between atoms: C_34  and  C_35 
DOCKED: REMARK    9  A    between atoms: C_35  and  C_36 
DOCKED: REMARK   10  A    between atoms: C_36  and  O_38 
DOCKED: USER                              x       y       z     vdW  Elec       q    Type
DOCKED: USER                           _______ _______ _______ _____ _____    ______ ____
DOCKED: ROOT
DOCKED: ATOM      1  C   UNL d   1       7.990  13.191  31.844 -0.27 +0.03    +0.064 C 
DOCKED: ATOM      2  C   UNL d   1       9.167   9.058  29.401 -0.33 +0.01    +0.064 A 
DOCKED: ATOM      3  C   UNL d   1       7.843  11.185  25.303 -0.39 +0.00    +0.064 C 
DOCKED: ATOM      4  C   UNL d   1       6.598  15.158  27.661 -0.48 +0.01    +0.064 C 
DOCKED: ATOM      5  C   UNL d   1       8.366  11.801  31.547 -0.17 +0.02    +0.066 A 
DOCKED: ATOM      6  C   UNL d   1       8.700  10.852  32.498 -0.33 -0.01    -0.021 A 
DOCKED: ATOM      7  C   UNL d   1       9.030   9.706  31.819 -0.40 -0.01    -0.025 A 
DOCKED: ATOM      8  C   UNL d   1       8.885  10.000  30.477 -0.37 +0.02    +0.066 A 
DOCKED: ATOM      9  C   UNL d   1       9.441   8.403  32.433 -0.48 +0.02    +0.051 C 
DOCKED: ATOM     10  C   UNL d   1       8.981   9.298  28.102 -0.39 +0.01    +0.066 A 
DOCKED: ATOM     11  C   UNL d   1       9.368   8.418  27.088 -0.40 -0.00    -0.021 A 
DOCKED: ATOM     12  C   UNL d   1       9.012   9.016  25.895 -0.44 +0.00    +0.000 A 
DOCKED: ATOM     13  C   UNL d   1       8.428  10.245  26.247 -0.35 +0.01    +0.070 A 
DOCKED: ATOM     14  C   UNL d   1      10.104   7.103  27.244 -0.28 +0.01    +0.052 C 
DOCKED: ATOM     15  C   UNL d   1       7.326  12.393  25.632 -0.35 +0.00    +0.066 A 
DOCKED: ATOM     16  C   UNL d   1       6.686  13.218  24.716 -0.37 -0.00    -0.021 A 
DOCKED: ATOM     17  C   UNL d   1       6.329  14.366  25.393 -0.42 +0.00    +0.000 A 
DOCKED: ATOM     18  C   UNL d   1       6.764  14.215  26.707 -0.36 +0.01    +0.070 A 
DOCKED: ATOM     19  C   UNL d   1       6.441  12.953  23.255 -0.42 +0.00    +0.052 C 
DOCKED: ATOM     20  C   UNL d   1       6.988  15.009  29.068 -0.37 +0.01    +0.066 A 
DOCKED: ATOM     21  C   UNL d   1       7.006  16.041  30.017 -0.33 -0.01    -0.025 A 
DOCKED: ATOM     22  C   UNL d   1       7.393  15.456  31.205 -0.30 -0.01    -0.021 A 
DOCKED: ATOM     23  C   UNL d   1       7.601  14.098  30.934 -0.26 +0.02    +0.066 A 
DOCKED: ATOM     24  C   UNL d   1       6.682  17.505  29.825 -0.21 +0.01    +0.051 C 
DOCKED: ATOM     25  N   UNL d   1       8.471  11.273  30.315 -0.21 -0.07    -0.248 N 
DOCKED: ATOM     26  N   UNL d   1       8.416  10.422  27.591 -0.24 -0.03    -0.248 N 
DOCKED: ATOM     27  N   UNL d   1       7.338  12.985  26.866 -0.23 -0.02    -0.248 N 
DOCKED: ATOM     28  N   UNL d   1       7.396  13.840  29.620 -0.16 -0.06    -0.248 N 
DOCKED: ATOM     29 FE   UNL d   1       7.905  12.133  28.605 -0.08 +0.00    +0.000 Fe
DOCKED: ENDROOT
DOCKED: BRANCH   6  30
DOCKED: ATOM     30  C   UNL d   1       8.686  11.016  33.979 -0.29 +0.03    +0.052 C 
DOCKED: BRANCH  30  31
DOCKED: ATOM     31  C   UNL d   1      10.105  11.137  34.523 -0.19 +0.11    +0.115 C 
DOCKED: BRANCH  31  32
DOCKED: ATOM     32  C   UNL d   1      10.352  12.526  35.043 -0.17 +0.16    +0.139 C 
DOCKED: ATOM     33  O   UNL d   1      11.468  13.024  34.985 -0.51 -1.11    -0.650 OA
DOCKED: BRANCH  32  34
DOCKED: ATOM     34  O   UNL d   1       9.345  13.235  35.579 +0.07 -0.62    -0.776 OA
DOCKED: ATOM     35  H   UNL d   1       9.441  14.194  35.669 +0.04 +0.13    +0.167 HD
DOCKED: ENDBRANCH  32  34
DOCKED: ENDBRANCH  31  32
DOCKED: ENDBRANCH  30  31
DOCKED: ENDBRANCH   6  30
DOCKED: BRANCH  22  36
DOCKED: ATOM     36  C   UNL d   1       7.599  16.173  32.513 -0.25 +0.03    +0.052 C 
DOCKED: BRANCH  36  37
DOCKED: ATOM     37  C   UNL d   1       8.804  15.588  33.235 -0.15 +0.07    +0.115 C 
DOCKED: BRANCH  37  38
DOCKED: ATOM     38  C   UNL d   1       8.724  15.846  34.713 -0.12 +0.10    +0.139 C 
DOCKED: ATOM     39  O   UNL d   1       9.631  16.418  35.298 +0.01 -0.35    -0.650 OA
DOCKED: BRANCH  38  40
DOCKED: ATOM     40  O   UNL d   1       7.645  15.442  35.407 -0.22 -1.15    -0.776 OA
DOCKED: ATOM     41  H   UNL d   1       7.673  14.592  35.867 +0.03 +0.23    +0.167 HD
DOCKED: ENDBRANCH  38  40
DOCKED: ENDBRANCH  37  38
DOCKED: ENDBRANCH  36  37
DOCKED: ENDBRANCH  22  36
DOCKED: BRANCH  12  42
DOCKED: ATOM     42  C   UNL d   1       9.249   8.430  24.540 -0.63 +0.00    +0.004 C 
DOCKED: ATOM     43  C   UNL d   1       8.397   7.539  24.016 -0.67 +0.00    +0.012 C 
DOCKED: ENDBRANCH  12  42
DOCKED: BRANCH  17  44
DOCKED: ATOM     44  C   UNL d   1       5.601  15.523  24.824 -0.55 +0.00    +0.004 C 
DOCKED: ATOM     45  C   UNL d   1       6.154  16.277  23.868 -0.59 +0.00    +0.012 C 
DOCKED: ENDBRANCH  17  44
DOCKED: TORSDOF 10
DOCKED: TER
DOCKED: ENDMDL
________________________________________________________________________________


	BEGINNING GENETIC ALGORITHM DOCKING 54 of 100
Run: 54 Seed: 931917425 1896219345 [ Run 54 of 100 GA/GALS ]
Beginning LAMARCKIAN GENETIC ALGORITHM (LGA), with a maximum of 25000000 energy evaluations.

Final-Value: -17.073


	FINAL GENETIC ALGORITHM DOCKED STATE
	_______________________________________________


Detailed state:  trans 24.385 -7.290 32.520 quatxyzw 0.651370 0.223837 -0.724900 0.011565 center -0.174 -0.001 -0.047 ntor 10 117.0677 -74.8173 74.8387 -126.2639 -53.2713 -115.9066 73.6199 57.1332 24.9738 108.4952
State:	 24.385  -7.290  32.520   0.651  0.224 -0.725 178.675    117.07  -74.82   74.84 -126.26  -53.27 -115.91   73.62   57.13   24.97  108.50

DOCKED: MODEL       54
DOCKED: USER    Run = 54
DOCKED: USER    DPF = D:/Protein_go_brrr/autodock/final/1A3N/heme_Fe/dock.dpf
DOCKED: USER  
DOCKED: USER    Estimated Free Energy of Binding    =  -13.73 kcal/mol  [=(1)+(2)+(3)-(4)]
DOCKED: USER    Estimated Inhibition Constant, Ki   =   86.03 pM (picomolar)  [Temperature = 298.15 K]
DOCKED: USER    
DOCKED: USER    (1) Final Intermolecular Energy     =  -16.71 kcal/mol
DOCKED: USER        vdW + Hbond + desolv Energy     =  -14.20 kcal/mol
DOCKED: USER        Electrostatic Energy            =   -2.51 kcal/mol
DOCKED: USER    (2) Final Total Internal Energy     =   -0.36 kcal/mol
DOCKED: USER    (3) Torsional Free Energy           =   +2.98 kcal/mol
DOCKED: USER    (4) Unbound System's Energy  [=(2)] =   -0.36 kcal/mol
DOCKED: USER    
DOCKED: USER    
DOCKED: USER    NEWDPF move heme_Fe_opt.pdbqt
DOCKED: USER    NEWDPF about -0.174000 -0.001000 -0.047000
DOCKED: USER    NEWDPF tran0 24.385144 -7.289968 32.520350
DOCKED: USER    NEWDPF quaternion0 0.651370 0.223837 -0.724900 0.011565
DOCKED: USER    NEWDPF axisangle0 0.651414 0.223852 -0.724948 178.674764
DOCKED: USER    NEWDPF quat0 0.651414 0.223852 -0.724948 178.674764
DOCKED: USER    NEWDPF dihe0 117.07 -74.82 74.84 -126.26 -53.27 -115.91 73.62 57.13 24.97 108.50 
DOCKED: USER  keepresnum = 1 
DOCKED: USER  
DOCKED: REMARK  10 active torsions:
DOCKED: REMARK  status: ('A' for Active; 'I' for Inactive)
DOCKED: REMARK    1  A    between atoms: C_6  and  C_10 
DOCKED: REMARK    2  A    between atoms: C_10  and  C_11 
DOCKED: REMARK    3  A    between atoms: C_11  and  C_12 
DOCKED: REMARK    4  A    between atoms: C_12  and  O_14 
DOCKED: REMARK    5  A    between atoms: C_17  and  C_20 
DOCKED: REMARK    6  A    between atoms: C_24  and  C_27 
DOCKED: REMARK    7  A    between atoms: C_31  and  C_34 
DOCKED: REMARK    8  A    between atoms: C_34  and  C_35 
DOCKED: REMARK    9  A    between atoms: C_35  and  C_36 
DOCKED: REMARK   10  A    between atoms: C_36  and  O_38 
DOCKED: USER                              x       y       z     vdW  Elec       q    Type
DOCKED: USER                           _______ _______ _______ _____ _____    ______ ____
DOCKED: ROOT
DOCKED: ATOM      1  C   UNL d   1      24.163  -8.012  34.428 -0.32 +0.02    +0.064 C 
DOCKED: ATOM      2  C   UNL d   1      22.882  -3.835  32.117 -0.40 +0.01    +0.064 A 
DOCKED: ATOM      3  C   UNL d   1      23.727  -5.986  27.907 -0.43 +0.00    +0.064 C 
DOCKED: ATOM      4  C   UNL d   1      25.072 -10.005  30.127 -0.49 +0.00    +0.064 C 
DOCKED: ATOM      5  C   UNL d   1      23.804  -6.611  34.171 -0.24 +0.02    +0.066 A 
DOCKED: ATOM      6  C   UNL d   1      23.596  -5.655  35.152 -0.25 -0.01    -0.021 A 
DOCKED: ATOM      7  C   UNL d   1      23.237  -4.496  34.509 -0.32 -0.00    -0.025 A 
DOCKED: ATOM      8  C   UNL d   1      23.239  -4.790  33.159 -0.33 +0.01    +0.066 A 
DOCKED: ATOM      9  C   UNL d   1      22.929  -3.184  35.162 -0.36 +0.01    +0.051 C 
DOCKED: ATOM     10  C   UNL d   1      22.931  -4.075  30.806 -0.40 +0.01    +0.066 A 
DOCKED: ATOM     11  C   UNL d   1      22.473  -3.180  29.836 -0.45 -0.00    -0.021 A 
DOCKED: ATOM     12  C   UNL d   1      22.691  -3.784  28.614 -0.47 +0.00    +0.000 A 
DOCKED: ATOM     13  C   UNL d   1      23.268  -5.032  28.905 -0.38 +0.00    +0.070 A 
DOCKED: ATOM     14  C   UNL d   1      21.798  -1.843  30.066 -0.38 +0.01    +0.052 C 
DOCKED: ATOM     15  C   UNL d   1      24.236  -7.211  28.181 -0.38 +0.00    +0.066 A 
DOCKED: ATOM     16  C   UNL d   1      24.755  -8.052  27.206 -0.39 -0.00    -0.021 A 
DOCKED: ATOM     17  C   UNL d   1      25.141  -9.213  27.844 -0.46 +0.00    +0.000 A 
DOCKED: ATOM     18  C   UNL d   1      24.843  -9.054  29.195 -0.40 +0.00    +0.070 A 
DOCKED: ATOM     19  C   UNL d   1      24.863  -7.788  25.728 -0.46 +0.00    +0.052 C 
DOCKED: ATOM     20  C   UNL d   1      24.829  -9.850  31.566 -0.38 +0.01    +0.066 A 
DOCKED: ATOM     21  C   UNL d   1      24.872 -10.885  32.511 -0.31 -0.00    -0.025 A 
DOCKED: ATOM     22  C   UNL d   1      24.622 -10.293  33.731 -0.27 -0.00    -0.021 A 
DOCKED: ATOM     23  C   UNL d   1      24.432  -8.928  33.484 -0.30 +0.01    +0.066 A 
DOCKED: ATOM     24  C   UNL d   1      25.129 -12.357  32.286 -0.13 +0.00    +0.051 C 
DOCKED: ATOM     25  N   UNL d   1      23.594  -6.074  32.956 -0.22 -0.04    -0.248 N 
DOCKED: ATOM     26  N   UNL d   1      23.407  -5.214  30.241 -0.24 -0.01    -0.248 N 
DOCKED: ATOM     27  N   UNL d   1      24.327  -7.807  29.411 -0.24 -0.01    -0.248 N 
DOCKED: ATOM     28  N   UNL d   1      24.514  -8.671  32.156 -0.23 -0.03    -0.248 N 
DOCKED: ATOM     29 FE   UNL d   1      23.961  -6.945  31.197 -0.09 +0.00    +0.000 Fe
DOCKED: ENDROOT
DOCKED: BRANCH   6  30
DOCKED: ATOM     30  C   UNL d   1      23.751  -5.826  36.624 -0.21 +0.02    +0.052 C 
DOCKED: BRANCH  30  31
DOCKED: ATOM     31  C   UNL d   1      24.897  -4.968  37.150 -0.17 +0.05    +0.115 C 
DOCKED: BRANCH  31  32
DOCKED: ATOM     32  C   UNL d   1      26.084  -5.826  37.489 -0.13 +0.15    +0.139 C 
DOCKED: ATOM     33  O   UNL d   1      25.966  -6.785  38.239 -0.25 -0.99    -0.650 OA
DOCKED: BRANCH  32  34
DOCKED: ATOM     34  O   UNL d   1      27.291  -5.545  36.969 -0.18 -1.11    -0.776 OA
DOCKED: ATOM     35  H   UNL d   1      27.411  -5.588  36.010 -0.31 +0.16    +0.167 HD
DOCKED: ENDBRANCH  32  34
DOCKED: ENDBRANCH  31  32
DOCKED: ENDBRANCH  30  31
DOCKED: ENDBRANCH   6  30
DOCKED: BRANCH  22  36
DOCKED: ATOM     36  C   UNL d   1      24.525 -11.008  35.053 -0.22 +0.01    +0.052 C 
DOCKED: BRANCH  36  37
DOCKED: ATOM     37  C   UNL d   1      23.654 -10.205  36.008 -0.18 +0.03    +0.115 C 
DOCKED: BRANCH  37  38
DOCKED: ATOM     38  C   UNL d   1      24.396  -9.889  37.276 -0.13 +0.07    +0.139 C 
DOCKED: ATOM     39  O   UNL d   1      24.019 -10.336  38.349 +0.01 -0.24    -0.650 OA
DOCKED: BRANCH  38  40
DOCKED: ATOM     40  O   UNL d   1      25.487  -9.103  37.237 -0.32 -0.90    -0.776 OA
DOCKED: ATOM     41  H   UNL d   1      25.419  -8.190  37.551 +0.02 +0.22    +0.167 HD
DOCKED: ENDBRANCH  38  40
DOCKED: ENDBRANCH  37  38
DOCKED: ENDBRANCH  36  37
DOCKED: ENDBRANCH  22  36
DOCKED: BRANCH  12  42
DOCKED: ATOM     42  C   UNL d   1      22.340  -3.185  27.289 -0.53 +0.00    +0.004 C 
DOCKED: ATOM     43  C   UNL d   1      23.273  -3.005  26.345 -0.62 +0.00    +0.012 C 
DOCKED: ENDBRANCH  12  42
DOCKED: BRANCH  17  44
DOCKED: ATOM     44  C   UNL d   1      25.772 -10.390  27.204 -0.58 -0.00    +0.004 C 
DOCKED: ATOM     45  C   UNL d   1      25.062 -11.205  26.417 -0.69 -0.00    +0.012 C 
DOCKED: ENDBRANCH  17  44
DOCKED: TORSDOF 10
DOCKED: TER
DOCKED: ENDMDL
________________________________________________________________________________


	BEGINNING GENETIC ALGORITHM DOCKING 55 of 100
Run: 55 Seed: 1540519293 2137300480 [ Run 55 of 100 GA/GALS ]
Beginning LAMARCKIAN GENETIC ALGORITHM (LGA), with a maximum of 25000000 energy evaluations.

Final-Value: -17.738


	FINAL GENETIC ALGORITHM DOCKED STATE
	_______________________________________________


Detailed state:  trans 24.355 -7.200 32.512 quatxyzw 0.663613 0.184596 -0.724938 0.002468 center -0.174 -0.001 -0.047 ntor 10 146.2873 -103.2354 47.2584 -119.6083 172.4151 43.6051 87.0933 -36.9756 15.2887 7.3342
State:	 24.355  -7.200  32.512   0.664  0.185 -0.725 179.717    146.29 -103.24   47.26 -119.61  172.42   43.61   87.09  -36.98   15.29    7.33

DOCKED: MODEL       55
DOCKED: USER    Run = 55
DOCKED: USER    DPF = D:/Protein_go_brrr/autodock/final/1A3N/heme_Fe/dock.dpf
DOCKED: USER  
DOCKED: USER    Estimated Free Energy of Binding    =  -13.42 kcal/mol  [=(1)+(2)+(3)-(4)]
DOCKED: USER    Estimated Inhibition Constant, Ki   =  144.43 pM (picomolar)  [Temperature = 298.15 K]
DOCKED: USER    
DOCKED: USER    (1) Final Intermolecular Energy     =  -16.41 kcal/mol
DOCKED: USER        vdW + Hbond + desolv Energy     =  -13.81 kcal/mol
DOCKED: USER        Electrostatic Energy            =   -2.60 kcal/mol
DOCKED: USER    (2) Final Total Internal Energy     =   -1.33 kcal/mol
DOCKED: USER    (3) Torsional Free Energy           =   +2.98 kcal/mol
DOCKED: USER    (4) Unbound System's Energy  [=(2)] =   -1.33 kcal/mol
DOCKED: USER    
DOCKED: USER    
DOCKED: USER    NEWDPF move heme_Fe_opt.pdbqt
DOCKED: USER    NEWDPF about -0.174000 -0.001000 -0.047000
DOCKED: USER    NEWDPF tran0 24.354715 -7.200085 32.511888
DOCKED: USER    NEWDPF quaternion0 0.663613 0.184596 -0.724938 0.002468
DOCKED: USER    NEWDPF axisangle0 0.663615 0.184597 -0.724941 179.717181
DOCKED: USER    NEWDPF quat0 0.663615 0.184597 -0.724941 179.717181
DOCKED: USER    NEWDPF dihe0 146.29 -103.24 47.26 -119.61 172.42 43.61 87.09 -36.98 15.29 7.33 
DOCKED: USER  keepresnum = 1 
DOCKED: USER  
DOCKED: REMARK  10 active torsions:
DOCKED: REMARK  status: ('A' for Active; 'I' for Inactive)
DOCKED: REMARK    1  A    between atoms: C_6  and  C_10 
DOCKED: REMARK    2  A    between atoms: C_10  and  C_11 
DOCKED: REMARK    3  A    between atoms: C_11  and  C_12 
DOCKED: REMARK    4  A    between atoms: C_12  and  O_14 
DOCKED: REMARK    5  A    between atoms: C_17  and  C_20 
DOCKED: REMARK    6  A    between atoms: C_24  and  C_27 
DOCKED: REMARK    7  A    between atoms: C_31  and  C_34 
DOCKED: REMARK    8  A    between atoms: C_34  and  C_35 
DOCKED: REMARK    9  A    between atoms: C_35  and  C_36 
DOCKED: REMARK   10  A    between atoms: C_36  and  O_38 
DOCKED: USER                              x       y       z     vdW  Elec       q    Type
DOCKED: USER                           _______ _______ _______ _____ _____    ______ ____
DOCKED: ROOT
DOCKED: ATOM      1  C   UNL d   1      24.064  -7.778  34.459 -0.32 +0.02    +0.064 C 
DOCKED: ATOM      2  C   UNL d   1      23.013  -3.721  31.840 -0.40 +0.01    +0.064 A 
DOCKED: ATOM      3  C   UNL d   1      23.844  -6.193  27.807 -0.44 +0.00    +0.064 C 
DOCKED: ATOM      4  C   UNL d   1      24.968 -10.102  30.326 -0.48 +0.00    +0.064 C 
DOCKED: ATOM      5  C   UNL d   1      23.773  -6.384  34.099 -0.23 +0.01    +0.066 A 
DOCKED: ATOM      6  C   UNL d   1      23.588  -5.354  35.007 -0.25 -0.00    -0.021 A 
DOCKED: ATOM      7  C   UNL d   1      23.292  -4.229  34.279 -0.33 -0.00    -0.025 A 
DOCKED: ATOM      8  C   UNL d   1      23.308  -4.615  32.952 -0.24 +0.01    +0.066 A 
DOCKED: ATOM      9  C   UNL d   1      23.031  -2.862  34.833 -0.40 +0.01    +0.051 C 
DOCKED: ATOM     10  C   UNL d   1      23.077  -4.053  30.549 -0.40 +0.01    +0.066 A 
DOCKED: ATOM     11  C   UNL d   1      22.678  -3.209  29.511 -0.45 -0.00    -0.021 A 
DOCKED: ATOM     12  C   UNL d   1      22.892  -3.905  28.338 -0.46 +0.00    +0.000 A 
DOCKED: ATOM     13  C   UNL d   1      23.408  -5.153  28.726 -0.38 +0.00    +0.070 A 
DOCKED: ATOM     14  C   UNL d   1      22.059  -1.831  29.633 -0.50 +0.00    +0.052 C 
DOCKED: ATOM     15  C   UNL d   1      24.293  -7.416  28.176 -0.39 +0.00    +0.066 A 
DOCKED: ATOM     16  C   UNL d   1      24.794  -8.345  27.272 -0.41 -0.00    -0.021 A 
DOCKED: ATOM     17  C   UNL d   1      25.115  -9.474  27.996 -0.49 +0.00    +0.000 A 
DOCKED: ATOM     18  C   UNL d   1      24.798  -9.209  29.326 -0.41 +0.00    +0.070 A 
DOCKED: ATOM     19  C   UNL d   1      24.942  -8.189  25.782 -0.48 +0.00    +0.052 C 
DOCKED: ATOM     20  C   UNL d   1      24.704  -9.837  31.745 -0.36 +0.01    +0.066 A 
DOCKED: ATOM     21  C   UNL d   1      24.682 -10.805  32.759 -0.23 -0.00    -0.025 A 
DOCKED: ATOM     22  C   UNL d   1      24.436 -10.119  33.931 -0.27 -0.00    -0.021 A 
DOCKED: ATOM     23  C   UNL d   1      24.310  -8.768  33.586 -0.30 +0.01    +0.066 A 
DOCKED: ATOM     24  C   UNL d   1      24.879 -12.298  32.642 -0.09 +0.00    +0.051 C 
DOCKED: ATOM     25  N   UNL d   1      23.610  -5.924  32.846 -0.21 -0.04    -0.248 N 
DOCKED: ATOM     26  N   UNL d   1      23.513  -5.248  30.074 -0.25 -0.01    -0.248 N 
DOCKED: ATOM     27  N   UNL d   1      24.334  -7.929  29.444 -0.24 -0.01    -0.248 N 
DOCKED: ATOM     28  N   UNL d   1      24.430  -8.608  32.246 -0.23 -0.03    -0.248 N 
DOCKED: ATOM     29 FE   UNL d   1      23.972  -6.930  31.159 -0.09 +0.00    +0.000 Fe
DOCKED: ENDROOT
DOCKED: BRANCH   6  30
DOCKED: ATOM     30  C   UNL d   1      23.707  -5.429  36.491 -0.21 +0.02    +0.052 C 
DOCKED: BRANCH  30  31
DOCKED: ATOM     31  C   UNL d   1      25.008  -4.788  36.961 -0.19 +0.05    +0.115 C 
DOCKED: BRANCH  31  32
DOCKED: ATOM     32  C   UNL d   1      26.092  -5.823  37.076 -0.15 +0.14    +0.139 C 
DOCKED: ATOM     33  O   UNL d   1      27.248  -5.493  37.304 -0.19 -0.94    -0.650 OA
DOCKED: BRANCH  32  34
DOCKED: ATOM     34  O   UNL d   1      25.800  -7.126  36.928 -0.15 -1.12    -0.776 OA
DOCKED: ATOM     35  H   UNL d   1      24.940  -7.452  37.231 +0.04 +0.15    +0.167 HD
DOCKED: ENDBRANCH  32  34
DOCKED: ENDBRANCH  31  32
DOCKED: ENDBRANCH  30  31
DOCKED: ENDBRANCH   6  30
DOCKED: BRANCH  22  36
DOCKED: ATOM     36  C   UNL d   1      24.281 -10.736  35.296 -0.22 +0.01    +0.052 C 
DOCKED: BRANCH  36  37
DOCKED: ATOM     37  C   UNL d   1      25.540 -10.493  36.115 -0.08 +0.07    +0.115 C 
DOCKED: BRANCH  37  38
DOCKED: ATOM     38  C   UNL d   1      25.202 -10.217  37.553 -0.12 +0.09    +0.139 C 
DOCKED: ATOM     39  O   UNL d   1      24.363 -10.887  38.137 +0.01 -0.23    -0.650 OA
DOCKED: BRANCH  38  40
DOCKED: ATOM     40  O   UNL d   1      25.824  -9.222  38.209 -0.39 -1.10    -0.776 OA
DOCKED: ATOM     41  H   UNL d   1      25.558  -8.308  38.038 +0.02 +0.26    +0.167 HD
DOCKED: ENDBRANCH  38  40
DOCKED: ENDBRANCH  37  38
DOCKED: ENDBRANCH  36  37
DOCKED: ENDBRANCH  22  36
DOCKED: BRANCH  12  42
DOCKED: ATOM     42  C   UNL d   1      22.594  -3.385  26.967 -0.58 +0.00    +0.004 C 
DOCKED: ATOM     43  C   UNL d   1      23.546  -2.799  26.230 -0.62 +0.00    +0.012 C 
DOCKED: ENDBRANCH  12  42
DOCKED: BRANCH  17  44
DOCKED: ATOM     44  C   UNL d   1      25.706 -10.718  27.453 -0.57 -0.00    +0.004 C 
DOCKED: ATOM     45  C   UNL d   1      25.020 -11.487  26.601 -0.66 -0.00    +0.012 C 
DOCKED: ENDBRANCH  17  44
DOCKED: TORSDOF 10
DOCKED: TER
DOCKED: ENDMDL
________________________________________________________________________________


	BEGINNING GENETIC ALGORITHM DOCKING 56 of 100
Run: 56 Seed: 1265355205 1716094760 [ Run 56 of 100 GA/GALS ]
Beginning LAMARCKIAN GENETIC ALGORITHM (LGA), with a maximum of 25000000 energy evaluations.

Final-Value: -11.573


	FINAL GENETIC ALGORITHM DOCKED STATE
	_______________________________________________


Detailed state:  trans 6.950 -14.327 20.552 quatxyzw -0.703942 -0.152652 -0.620796 0.309476 center -0.174 -0.001 -0.047 ntor 10 134.2642 162.4001 7.6231 -156.4851 135.5444 121.1212 -53.5528 128.4883 -177.1207 -169.8806
State:	  6.950 -14.327  20.552  -0.740 -0.161 -0.653 143.945    134.26  162.40    7.62 -156.49  135.54  121.12  -53.55  128.49 -177.12 -169.88

DOCKED: MODEL       56
DOCKED: USER    Run = 56
DOCKED: USER    DPF = D:/Protein_go_brrr/autodock/final/1A3N/heme_Fe/dock.dpf
DOCKED: USER  
DOCKED: USER    Estimated Free Energy of Binding    =   -6.76 kcal/mol  [=(1)+(2)+(3)-(4)]
DOCKED: USER    Estimated Inhibition Constant, Ki   =   11.03 uM (micromolar)  [Temperature = 298.15 K]
DOCKED: USER    
DOCKED: USER    (1) Final Intermolecular Energy     =   -9.75 kcal/mol
DOCKED: USER        vdW + Hbond + desolv Energy     =   -6.32 kcal/mol
DOCKED: USER        Electrostatic Energy            =   -3.43 kcal/mol
DOCKED: USER    (2) Final Total Internal Energy     =   -1.83 kcal/mol
DOCKED: USER    (3) Torsional Free Energy           =   +2.98 kcal/mol
DOCKED: USER    (4) Unbound System's Energy  [=(2)] =   -1.83 kcal/mol
DOCKED: USER    
DOCKED: USER    
DOCKED: USER    NEWDPF move heme_Fe_opt.pdbqt
DOCKED: USER    NEWDPF about -0.174000 -0.001000 -0.047000
DOCKED: USER    NEWDPF tran0 6.950125 -14.326810 20.552307
DOCKED: USER    NEWDPF quaternion0 -0.703942 -0.152652 -0.620796 0.309476
DOCKED: USER    NEWDPF axisangle0 -0.740284 -0.160533 -0.652846 143.944679
DOCKED: USER    NEWDPF quat0 -0.740284 -0.160533 -0.652846 143.944679
DOCKED: USER    NEWDPF dihe0 134.26 162.40 7.62 -156.49 135.54 121.12 -53.55 128.49 -177.12 -169.88 
DOCKED: USER  keepresnum = 1 
DOCKED: USER  
DOCKED: REMARK  10 active torsions:
DOCKED: REMARK  status: ('A' for Active; 'I' for Inactive)
DOCKED: REMARK    1  A    between atoms: C_6  and  C_10 
DOCKED: REMARK    2  A    between atoms: C_10  and  C_11 
DOCKED: REMARK    3  A    between atoms: C_11  and  C_12 
DOCKED: REMARK    4  A    between atoms: C_12  and  O_14 
DOCKED: REMARK    5  A    between atoms: C_17  and  C_20 
DOCKED: REMARK    6  A    between atoms: C_24  and  C_27 
DOCKED: REMARK    7  A    between atoms: C_31  and  C_34 
DOCKED: REMARK    8  A    between atoms: C_34  and  C_35 
DOCKED: REMARK    9  A    between atoms: C_35  and  C_36 
DOCKED: REMARK   10  A    between atoms: C_36  and  O_38 
DOCKED: USER                              x       y       z     vdW  Elec       q    Type
DOCKED: USER                           _______ _______ _______ _____ _____    ______ ____
DOCKED: ROOT
DOCKED: ATOM      1  C   UNL d   1       7.114 -15.600  18.951 -0.15 +0.04    +0.064 C 
DOCKED: ATOM      2  C   UNL d   1       8.156 -10.831  19.726 -0.05 +0.02    +0.064 A 
DOCKED: ATOM      3  C   UNL d   1       7.782 -11.589  24.454 -0.14 -0.02    +0.064 C 
DOCKED: ATOM      4  C   UNL d   1       6.669 -16.184  23.722 -0.19 +0.02    +0.064 C 
DOCKED: ATOM      5  C   UNL d   1       7.359 -14.168  18.727 -0.10 +0.03    +0.066 A 
DOCKED: ATOM      6  C   UNL d   1       7.416 -13.561  17.484 -0.05 -0.01    -0.021 A 
DOCKED: ATOM      7  C   UNL d   1       7.709 -12.237  17.700 -0.04 -0.01    -0.025 A 
DOCKED: ATOM      8  C   UNL d   1       7.820 -12.087  19.069 -0.06 +0.02    +0.066 A 
DOCKED: ATOM      9  C   UNL d   1       7.853 -11.181  16.647 -0.07 +0.02    +0.051 C 
DOCKED: ATOM     10  C   UNL d   1       8.213 -10.646  21.046 -0.10 +0.01    +0.066 A 
DOCKED: ATOM     11  C   UNL d   1       8.649  -9.462  21.645 -0.15 -0.00    -0.021 A 
DOCKED: ATOM     12  C   UNL d   1       8.566  -9.660  23.009 -0.32 -0.00    +0.000 A 
DOCKED: ATOM     13  C   UNL d   1       8.088 -10.972  23.173 -0.25 -0.00    +0.070 A 
DOCKED: ATOM     14  C   UNL d   1       9.183  -8.224  20.952 -0.12 +0.01    +0.052 C 
DOCKED: ATOM     15  C   UNL d   1       7.371 -12.868  24.620 -0.24 -0.00    +0.066 A 
DOCKED: ATOM     16  C   UNL d   1       6.994 -13.390  25.851 -0.28 -0.00    -0.021 A 
DOCKED: ATOM     17  C   UNL d   1       6.675 -14.716  25.643 -0.18 +0.00    +0.000 A 
DOCKED: ATOM     18  C   UNL d   1       6.870 -14.974  24.288 -0.17 +0.02    +0.070 A 
DOCKED: ATOM     19  C   UNL d   1       6.958 -12.679  27.178 -0.39 +0.00    +0.052 C 
DOCKED: ATOM     20  C   UNL d   1       6.804 -16.476  22.290 -0.18 +0.02    +0.066 A 
DOCKED: ATOM     21  C   UNL d   1       6.795 -17.758  21.721 -0.15 -0.01    -0.025 A 
DOCKED: ATOM     22  C   UNL d   1       6.910 -17.567  20.360 -0.14 -0.01    -0.021 A 
DOCKED: ATOM     23  C   UNL d   1       6.991 -16.185  20.153 -0.16 +0.04    +0.066 A 
DOCKED: ATOM     24  C   UNL d   1       6.688 -19.097  22.413 -0.09 +0.01    +0.051 C 
DOCKED: ATOM     25  N   UNL d   1       7.597 -13.262  19.691 -0.08 -0.11    -0.248 N 
DOCKED: ATOM     26  N   UNL d   1       7.880 -11.576  21.978 -0.10 -0.04    -0.248 N 
DOCKED: ATOM     27  N   UNL d   1       7.255 -13.828  23.650 -0.14 -0.03    -0.248 N 
DOCKED: ATOM     28  N   UNL d   1       6.971 -15.527  21.338 -0.15 -0.11    -0.248 N 
DOCKED: ATOM     29 FE   UNL d   1       7.425 -13.553  21.659 -0.04 +0.00    +0.000 Fe
DOCKED: ENDROOT
DOCKED: BRANCH   6  30
DOCKED: ATOM     30  C   UNL d   1       7.182 -14.199  16.157 -0.04 +0.03    +0.052 C 
DOCKED: BRANCH  30  31
DOCKED: ATOM     31  C   UNL d   1       8.475 -14.792  15.608 -0.03 +0.10    +0.115 C 
DOCKED: BRANCH  31  32
DOCKED: ATOM     32  C   UNL d   1       8.279 -16.239  15.249 -0.04 +0.14    +0.139 C 
DOCKED: ATOM     33  O   UNL d   1       8.713 -16.684  14.195 -0.35 -1.12    -0.650 OA
DOCKED: BRANCH  32  34
DOCKED: ATOM     34  O   UNL d   1       7.622 -17.059  16.086 +0.06 -0.58    -0.776 OA
DOCKED: ATOM     35  H   UNL d   1       7.836 -17.036  17.029 +0.03 +0.12    +0.167 HD
DOCKED: ENDBRANCH  32  34
DOCKED: ENDBRANCH  31  32
DOCKED: ENDBRANCH  30  31
DOCKED: ENDBRANCH   6  30
DOCKED: BRANCH  22  36
DOCKED: ATOM     36  C   UNL d   1       6.987 -18.656  19.322 -0.07 +0.02    +0.052 C 
DOCKED: BRANCH  36  37
DOCKED: ATOM     37  C   UNL d   1       8.348 -19.333  19.389 -0.07 +0.07    +0.115 C 
DOCKED: BRANCH  37  38
DOCKED: ATOM     38  C   UNL d   1       9.457 -18.322  19.318 -0.03 +0.19    +0.139 C 
DOCKED: ATOM     39  O   UNL d   1      10.276 -18.227  20.220 -0.25 -1.20    -0.650 OA
DOCKED: BRANCH  38  40
DOCKED: ATOM     40  O   UNL d   1       9.554 -17.506  18.253 -0.04 -1.31    -0.776 OA
DOCKED: ATOM     41  H   UNL d   1       9.086 -17.739  17.438 +0.02 +0.19    +0.167 HD
DOCKED: ENDBRANCH  38  40
DOCKED: ENDBRANCH  37  38
DOCKED: ENDBRANCH  36  37
DOCKED: ENDBRANCH  22  36
DOCKED: BRANCH  12  42
DOCKED: ATOM     42  C   UNL d   1       8.946  -8.651  24.045 -0.43 -0.00    +0.004 C 
DOCKED: ATOM     43  C   UNL d   1       8.399  -7.429  24.050 -0.53 -0.00    +0.012 C 
DOCKED: ENDBRANCH  12  42
DOCKED: BRANCH  17  44
DOCKED: ATOM     44  C   UNL d   1       6.196 -15.669  26.670 -0.14 +0.00    +0.004 C 
DOCKED: ATOM     45  C   UNL d   1       7.021 -16.581  27.195 -0.15 +0.01    +0.012 C 
DOCKED: ENDBRANCH  17  44
DOCKED: TORSDOF 10
DOCKED: TER
DOCKED: ENDMDL
________________________________________________________________________________


	BEGINNING GENETIC ALGORITHM DOCKING 57 of 100
Run: 57 Seed: 1524068794 1311392389 [ Run 57 of 100 GA/GALS ]
Beginning LAMARCKIAN GENETIC ALGORITHM (LGA), with a maximum of 25000000 energy evaluations.

Final-Value: -10.973


	FINAL GENETIC ALGORITHM DOCKED STATE
	_______________________________________________


Detailed state:  trans 7.674 -15.990 15.578 quatxyzw -0.640309 -0.751389 -0.155020 -0.037260 center -0.174 -0.001 -0.047 ntor 10 -166.9347 152.7569 95.4138 55.2437 68.4337 102.7236 -128.5356 141.0058 163.9392 -0.0107
State:	  7.674 -15.990  15.578  -0.641 -0.752 -0.155 -175.729   -166.93  152.76   95.41   55.24   68.43  102.72 -128.54  141.01  163.94   -0.01

DOCKED: MODEL       57
DOCKED: USER    Run = 57
DOCKED: USER    DPF = D:/Protein_go_brrr/autodock/final/1A3N/heme_Fe/dock.dpf
DOCKED: USER  
DOCKED: USER    Estimated Free Energy of Binding    =   -7.19 kcal/mol  [=(1)+(2)+(3)-(4)]
DOCKED: USER    Estimated Inhibition Constant, Ki   =    5.39 uM (micromolar)  [Temperature = 298.15 K]
DOCKED: USER    
DOCKED: USER    (1) Final Intermolecular Energy     =  -10.17 kcal/mol
DOCKED: USER        vdW + Hbond + desolv Energy     =   -6.40 kcal/mol
DOCKED: USER        Electrostatic Energy            =   -3.77 kcal/mol
DOCKED: USER    (2) Final Total Internal Energy     =   -0.80 kcal/mol
DOCKED: USER    (3) Torsional Free Energy           =   +2.98 kcal/mol
DOCKED: USER    (4) Unbound System's Energy  [=(2)] =   -0.80 kcal/mol
DOCKED: USER    
DOCKED: USER    
DOCKED: USER    NEWDPF move heme_Fe_opt.pdbqt
DOCKED: USER    NEWDPF about -0.174000 -0.001000 -0.047000
DOCKED: USER    NEWDPF tran0 7.673982 -15.990245 15.578028
DOCKED: USER    NEWDPF quaternion0 -0.640309 -0.751389 -0.155020 -0.037260
DOCKED: USER    NEWDPF axisangle0 -0.640754 -0.751911 -0.155128 -175.729372
DOCKED: USER    NEWDPF quat0 -0.640754 -0.751911 -0.155128 -175.729372
DOCKED: USER    NEWDPF dihe0 -166.93 152.76 95.41 55.24 68.43 102.72 -128.54 141.01 163.94 -0.01 
DOCKED: USER  keepresnum = 1 
DOCKED: USER  
DOCKED: REMARK  10 active torsions:
DOCKED: REMARK  status: ('A' for Active; 'I' for Inactive)
DOCKED: REMARK    1  A    between atoms: C_6  and  C_10 
DOCKED: REMARK    2  A    between atoms: C_10  and  C_11 
DOCKED: REMARK    3  A    between atoms: C_11  and  C_12 
DOCKED: REMARK    4  A    between atoms: C_12  and  O_14 
DOCKED: REMARK    5  A    between atoms: C_17  and  C_20 
DOCKED: REMARK    6  A    between atoms: C_24  and  C_27 
DOCKED: REMARK    7  A    between atoms: C_31  and  C_34 
DOCKED: REMARK    8  A    between atoms: C_34  and  C_35 
DOCKED: REMARK    9  A    between atoms: C_35  and  C_36 
DOCKED: REMARK   10  A    between atoms: C_36  and  O_38 
DOCKED: USER                              x       y       z     vdW  Elec       q    Type
DOCKED: USER                           _______ _______ _______ _____ _____    ______ ____
DOCKED: ROOT
DOCKED: ATOM      1  C   UNL d   1       8.043 -17.732  14.558 -0.07 +0.07    +0.064 C 
DOCKED: ATOM      2  C   UNL d   1       4.131 -14.753  15.056 -0.15 +0.02    +0.064 A 
DOCKED: ATOM      3  C   UNL d   1       7.023 -11.371  16.862 -0.08 +0.02    +0.064 C 
DOCKED: ATOM      4  C   UNL d   1      10.805 -14.275  16.487 -0.08 +0.06    +0.064 C 
DOCKED: ATOM      5  C   UNL d   1       6.661 -17.238  14.608 -0.06 +0.06    +0.066 A 
DOCKED: ATOM      6  C   UNL d   1       5.542 -17.982  14.271 -0.12 -0.01    -0.021 A 
DOCKED: ATOM      7  C   UNL d   1       4.456 -17.152  14.406 -0.17 -0.01    -0.025 A 
DOCKED: ATOM      8  C   UNL d   1       4.954 -15.933  14.821 -0.08 +0.03    +0.066 A 
DOCKED: ATOM      9  C   UNL d   1       3.025 -17.525  14.166 -0.30 +0.00    +0.051 C 
DOCKED: ATOM     10  C   UNL d   1       4.578 -13.582  15.511 -0.15 +0.02    +0.066 A 
DOCKED: ATOM     11  C   UNL d   1       3.785 -12.437  15.617 -0.33 -0.00    -0.021 A 
DOCKED: ATOM     12  C   UNL d   1       4.600 -11.443  16.120 -0.32 +0.00    +0.000 A 
DOCKED: ATOM     13  C   UNL d   1       5.863 -12.036  16.289 -0.12 +0.02    +0.070 A 
DOCKED: ATOM     14  C   UNL d   1       2.339 -12.279  15.195 -0.44 +0.01    +0.052 C 
DOCKED: ATOM     15  C   UNL d   1       8.254 -11.921  16.979 -0.02 +0.03    +0.066 A 
DOCKED: ATOM     16  C   UNL d   1       9.310 -11.289  17.623 -0.02 -0.01    -0.021 A 
DOCKED: ATOM     17  C   UNL d   1      10.403 -12.123  17.513 -0.05 +0.00    +0.000 A 
DOCKED: ATOM     18  C   UNL d   1       9.988 -13.246  16.799 -0.03 +0.05    +0.070 A 
DOCKED: ATOM     19  C   UNL d   1       9.301  -9.942  18.294 -0.03 +0.02    +0.052 C 
DOCKED: ATOM     20  C   UNL d   1      10.390 -15.499  15.792 -0.06 +0.08    +0.066 A 
DOCKED: ATOM     21  C   UNL d   1      11.257 -16.478  15.287 -0.08 -0.03    -0.025 A 
DOCKED: ATOM     22  C   UNL d   1      10.448 -17.460  14.753 -0.08 -0.02    -0.021 A 
DOCKED: ATOM     23  C   UNL d   1       9.127 -17.041  14.946 -0.06 +0.08    +0.066 A 
DOCKED: ATOM     24  C   UNL d   1      12.768 -16.496  15.298 -0.07 +0.06    +0.051 C 
DOCKED: ATOM     25  N   UNL d   1       6.295 -15.991  14.953 -0.02 -0.18    -0.248 N 
DOCKED: ATOM     26  N   UNL d   1       5.853 -13.338  15.910 -0.04 -0.10    -0.248 N 
DOCKED: ATOM     27  N   UNL d   1       8.657 -13.143  16.509 +0.01 -0.14    -0.248 N 
DOCKED: ATOM     28  N   UNL d   1       9.098 -15.823  15.540 -0.03 -0.26    -0.248 N 
DOCKED: ATOM     29 FE   UNL d   1       7.477 -14.580  15.725 -0.02 +0.00    +0.000 Fe
DOCKED: ENDROOT
DOCKED: BRANCH   6  30
DOCKED: ATOM     30  C   UNL d   1       5.502 -19.414  13.861 -0.16 +0.02    +0.052 C 
DOCKED: BRANCH  30  31
DOCKED: ATOM     31  C   UNL d   1       5.225 -19.541  12.367 -0.30 +0.06    +0.115 C 
DOCKED: BRANCH  31  32
DOCKED: ATOM     32  C   UNL d   1       6.177 -18.684  11.581 -0.29 +0.18    +0.139 C 
DOCKED: ATOM     33  O   UNL d   1       7.368 -18.959  11.532 -0.29 -1.12    -0.650 OA
DOCKED: BRANCH  32  34
DOCKED: ATOM     34  O   UNL d   1       5.726 -17.604  10.922 -0.82 -1.25    -0.776 OA
DOCKED: ATOM     35  H   UNL d   1       4.835 -17.277  11.110 +0.07 +0.19    +0.167 HD
DOCKED: ENDBRANCH  32  34
DOCKED: ENDBRANCH  31  32
DOCKED: ENDBRANCH  30  31
DOCKED: ENDBRANCH   6  30
DOCKED: BRANCH  22  36
DOCKED: ATOM     36  C   UNL d   1      10.923 -18.706  14.053 -0.08 +0.05    +0.052 C 
DOCKED: BRANCH  36  37
DOCKED: ATOM     37  C   UNL d   1      10.933 -19.872  15.031 -0.03 +0.08    +0.115 C 
DOCKED: BRANCH  37  38
DOCKED: ATOM     38  C   UNL d   1      11.426 -19.437  16.382 -0.04 +0.17    +0.139 C 
DOCKED: ATOM     39  O   UNL d   1      10.643 -19.246  17.302 -0.09 -0.99    -0.650 OA
DOCKED: BRANCH  38  40
DOCKED: ATOM     40  O   UNL d   1      12.742 -19.251  16.589 -0.18 -1.17    -0.776 OA
DOCKED: ATOM     41  H   UNL d   1      13.376 -19.750  16.056 +0.01 +0.14    +0.167 HD
DOCKED: ENDBRANCH  38  40
DOCKED: ENDBRANCH  37  38
DOCKED: ENDBRANCH  36  37
DOCKED: ENDBRANCH  22  36
DOCKED: BRANCH  12  42
DOCKED: ATOM     42  C   UNL d   1       4.169 -10.036  16.387 -0.31 +0.00    +0.004 C 
DOCKED: ATOM     43  C   UNL d   1       4.639  -9.359  17.443 -0.34 +0.00    +0.012 C 
DOCKED: ENDBRANCH  12  42
DOCKED: BRANCH  17  44
DOCKED: ATOM     44  C   UNL d   1      11.751 -11.872  18.072 -0.17 +0.00    +0.004 C 
DOCKED: ATOM     45  C   UNL d   1      12.204 -12.582  19.110 -0.33 +0.01    +0.012 C 
DOCKED: ENDBRANCH  17  44
DOCKED: TORSDOF 10
DOCKED: TER
DOCKED: ENDMDL
________________________________________________________________________________


	BEGINNING GENETIC ALGORITHM DOCKING 58 of 100
Run: 58 Seed: 955307198 1963387627 [ Run 58 of 100 GA/GALS ]
Beginning LAMARCKIAN GENETIC ALGORITHM (LGA), with a maximum of 25000000 energy evaluations.

Final-Value: -17.880


	FINAL GENETIC ALGORITHM DOCKED STATE
	_______________________________________________


Detailed state:  trans 2.817 -6.594 -4.332 quatxyzw -0.268452 -0.711992 -0.089972 -0.642577 center -0.174 -0.001 -0.047 ntor 10 -3.2475 158.6289 92.6837 -141.6962 19.8806 -115.9352 -73.9375 12.2712 -169.1319 180.0000
State:	  2.817  -6.594  -4.332  -0.350 -0.929 -0.117 -100.031     -3.25  158.63   92.68 -141.70   19.88 -115.94  -73.94   12.27 -169.13  180.00

DOCKED: MODEL       58
DOCKED: USER    Run = 58
DOCKED: USER    DPF = D:/Protein_go_brrr/autodock/final/1A3N/heme_Fe/dock.dpf
DOCKED: USER  
DOCKED: USER    Estimated Free Energy of Binding    =  -12.75 kcal/mol  [=(1)+(2)+(3)-(4)]
DOCKED: USER    Estimated Inhibition Constant, Ki   =  448.35 pM (picomolar)  [Temperature = 298.15 K]
DOCKED: USER    
DOCKED: USER    (1) Final Intermolecular Energy     =  -15.74 kcal/mol
DOCKED: USER        vdW + Hbond + desolv Energy     =  -14.12 kcal/mol
DOCKED: USER        Electrostatic Energy            =   -1.62 kcal/mol
DOCKED: USER    (2) Final Total Internal Energy     =   -2.14 kcal/mol
DOCKED: USER    (3) Torsional Free Energy           =   +2.98 kcal/mol
DOCKED: USER    (4) Unbound System's Energy  [=(2)] =   -2.14 kcal/mol
DOCKED: USER    
DOCKED: USER    
DOCKED: USER    NEWDPF move heme_Fe_opt.pdbqt
DOCKED: USER    NEWDPF about -0.174000 -0.001000 -0.047000
DOCKED: USER    NEWDPF tran0 2.816663 -6.593953 -4.331565
DOCKED: USER    NEWDPF quaternion0 -0.268452 -0.711992 -0.089972 -0.642577
DOCKED: USER    NEWDPF axisangle0 -0.350358 -0.929226 -0.117423 -100.031442
DOCKED: USER    NEWDPF quat0 -0.350358 -0.929226 -0.117423 -100.031442
DOCKED: USER    NEWDPF dihe0 -3.25 158.63 92.68 -141.70 19.88 -115.94 -73.94 12.27 -169.13 180.00 
DOCKED: USER  keepresnum = 1 
DOCKED: USER  
DOCKED: REMARK  10 active torsions:
DOCKED: REMARK  status: ('A' for Active; 'I' for Inactive)
DOCKED: REMARK    1  A    between atoms: C_6  and  C_10 
DOCKED: REMARK    2  A    between atoms: C_10  and  C_11 
DOCKED: REMARK    3  A    between atoms: C_11  and  C_12 
DOCKED: REMARK    4  A    between atoms: C_12  and  O_14 
DOCKED: REMARK    5  A    between atoms: C_17  and  C_20 
DOCKED: REMARK    6  A    between atoms: C_24  and  C_27 
DOCKED: REMARK    7  A    between atoms: C_31  and  C_34 
DOCKED: REMARK    8  A    between atoms: C_34  and  C_35 
DOCKED: REMARK    9  A    between atoms: C_35  and  C_36 
DOCKED: REMARK   10  A    between atoms: C_36  and  O_38 
DOCKED: USER                              x       y       z     vdW  Elec       q    Type
DOCKED: USER                           _______ _______ _______ _____ _____    ______ ____
DOCKED: ROOT
DOCKED: ATOM      1  C   UNL d   1       2.386  -6.920  -6.311 -0.29 +0.02    +0.064 C 
DOCKED: ATOM      2  C   UNL d   1       0.789  -8.830  -2.041 -0.39 +0.00    +0.064 A 
DOCKED: ATOM      3  C   UNL d   1       2.790  -5.133   0.281 -0.41 +0.00    +0.064 C 
DOCKED: ATOM      4  C   UNL d   1       4.436  -3.323  -3.830 -0.49 +0.01    +0.064 C 
DOCKED: ATOM      5  C   UNL d   1       1.822  -7.844  -5.317 -0.32 +0.01    +0.066 A 
DOCKED: ATOM      6  C   UNL d   1       1.260  -9.075  -5.612 -0.31 -0.00    -0.021 A 
DOCKED: ATOM      7  C   UNL d   1       0.813  -9.603  -4.426 -0.33 -0.00    -0.025 A 
DOCKED: ATOM      8  C   UNL d   1       1.121  -8.673  -3.452 -0.30 +0.01    +0.066 A 
DOCKED: ATOM      9  C   UNL d   1       0.147 -10.933  -4.247 -0.19 +0.00    +0.051 C 
DOCKED: ATOM     10  C   UNL d   1       1.125  -7.975  -1.074 -0.38 +0.00    +0.066 A 
DOCKED: ATOM     11  C   UNL d   1       0.694  -8.095   0.250 -0.43 -0.00    -0.021 A 
DOCKED: ATOM     12  C   UNL d   1       1.244  -7.031   0.937 -0.36 +0.00    +0.000 A 
DOCKED: ATOM     13  C   UNL d   1       1.983  -6.306  -0.014 -0.37 +0.00    +0.070 A 
DOCKED: ATOM     14  C   UNL d   1      -0.252  -9.133   0.818 -0.59 -0.00    +0.052 C 
DOCKED: ATOM     15  C   UNL d   1       3.461  -4.402  -0.639 -0.37 +0.00    +0.066 A 
DOCKED: ATOM     16  C   UNL d   1       4.302  -3.348  -0.305 -0.48 -0.00    -0.021 A 
DOCKED: ATOM     17  C   UNL d   1       4.775  -2.822  -1.489 -0.49 +0.00    +0.000 A 
DOCKED: ATOM     18  C   UNL d   1       4.207  -3.566  -2.521 -0.39 +0.01    +0.070 A 
DOCKED: ATOM     19  C   UNL d   1       4.630  -2.837   1.072 -0.47 +0.00    +0.052 C 
DOCKED: ATOM     20  C   UNL d   1       3.905  -4.123  -4.940 -0.41 +0.01    +0.066 A 
DOCKED: ATOM     21  C   UNL d   1       3.967  -3.769  -6.295 -0.43 -0.00    -0.025 A 
DOCKED: ATOM     22  C   UNL d   1       3.388  -4.814  -6.985 -0.35 -0.00    -0.021 A 
DOCKED: ATOM     23  C   UNL d   1       2.993  -5.756  -6.029 -0.30 +0.02    +0.066 A 
DOCKED: ATOM     24  C   UNL d   1       4.535  -2.514  -6.918 -0.29 +0.00    +0.051 C 
DOCKED: ATOM     25  N   UNL d   1       1.744  -7.609  -3.996 -0.21 -0.02    -0.248 N 
DOCKED: ATOM     26  N   UNL d   1       1.903  -6.876  -1.241 -0.24 -0.00    -0.248 N 
DOCKED: ATOM     27  N   UNL d   1       3.434  -4.565  -1.998 -0.23 -0.01    -0.248 N 
DOCKED: ATOM     28  N   UNL d   1       3.270  -5.309  -4.780 -0.24 -0.05    -0.248 N 
DOCKED: ATOM     29 FE   UNL d   1       2.588  -6.091  -3.011 -0.08 +0.00    +0.000 Fe
DOCKED: ENDROOT
DOCKED: BRANCH   6  30
DOCKED: ATOM     30  C   UNL d   1       1.168  -9.728  -6.948 -0.24 +0.01    +0.052 C 
DOCKED: BRANCH  30  31
DOCKED: ATOM     31  C   UNL d   1       0.011  -9.150  -7.755 -0.18 +0.06    +0.115 C 
DOCKED: BRANCH  31  32
DOCKED: ATOM     32  C   UNL d   1       0.525  -8.251  -8.844 -0.17 +0.09    +0.139 C 
DOCKED: ATOM     33  O   UNL d   1       1.684  -8.336  -9.227 +0.01 -0.25    -0.650 OA
DOCKED: BRANCH  32  34
DOCKED: ATOM     34  O   UNL d   1      -0.287  -7.342  -9.409 -0.28 -1.20    -0.776 OA
DOCKED: ATOM     35  H   UNL d   1       0.073  -6.740 -10.075 +0.03 +0.24    +0.167 HD
DOCKED: ENDBRANCH  32  34
DOCKED: ENDBRANCH  31  32
DOCKED: ENDBRANCH  30  31
DOCKED: ENDBRANCH   6  30
DOCKED: BRANCH  22  36
DOCKED: ATOM     36  C   UNL d   1       3.184  -4.878  -8.476 -0.29 +0.01    +0.052 C 
DOCKED: BRANCH  36  37
DOCKED: ATOM     37  C   UNL d   1       1.914  -4.130  -8.853 -0.33 +0.05    +0.115 C 
DOCKED: BRANCH  37  38
DOCKED: ATOM     38  C   UNL d   1       1.531  -4.404 -10.280 -0.21 +0.07    +0.139 C 
DOCKED: ATOM     39  O   UNL d   1       1.523  -3.505 -11.108 +0.03 -0.26    -0.650 OA
DOCKED: BRANCH  38  40
DOCKED: ATOM     40  O   UNL d   1       1.189  -5.649 -10.656 -0.01 -0.52    -0.776 OA
DOCKED: ATOM     41  H   UNL d   1       1.483  -6.399 -10.120 +0.04 +0.10    +0.167 HD
DOCKED: ENDBRANCH  38  40
DOCKED: ENDBRANCH  37  38
DOCKED: ENDBRANCH  36  37
DOCKED: ENDBRANCH  22  36
DOCKED: BRANCH  12  42
DOCKED: ATOM     42  C   UNL d   1       1.038  -6.754   2.392 -0.51 +0.00    +0.004 C 
DOCKED: ATOM     43  C   UNL d   1       2.044  -6.313   3.159 -0.54 +0.00    +0.012 C 
DOCKED: ENDBRANCH  12  42
DOCKED: BRANCH  17  44
DOCKED: ATOM     44  C   UNL d   1       5.725  -1.694  -1.624 -0.64 +0.00    +0.004 C 
DOCKED: ATOM     45  C   UNL d   1       5.287  -0.432  -1.669 -0.68 +0.00    +0.012 C 
DOCKED: ENDBRANCH  17  44
DOCKED: TORSDOF 10
DOCKED: TER
DOCKED: ENDMDL
________________________________________________________________________________


	BEGINNING GENETIC ALGORITHM DOCKING 59 of 100
Run: 59 Seed: 706905374 1949887235 [ Run 59 of 100 GA/GALS ]
Beginning LAMARCKIAN GENETIC ALGORITHM (LGA), with a maximum of 25000000 energy evaluations.

Final-Value: -16.884


	FINAL GENETIC ALGORITHM DOCKED STATE
	_______________________________________________


Detailed state:  trans 7.670 12.141 29.228 quatxyzw 0.265637 -0.680233 0.030868 0.682471 center -0.174 -0.001 -0.047 ntor 10 63.2773 -76.2475 70.2605 179.6918 -161.5269 93.9493 -51.7880 -55.1622 164.4208 3.6152
State:	  7.670  12.141  29.228   0.363 -0.931  0.042 93.926     63.28  -76.25   70.26  179.69 -161.53   93.95  -51.79  -55.16  164.42    3.62

DOCKED: MODEL       59
DOCKED: USER    Run = 59
DOCKED: USER    DPF = D:/Protein_go_brrr/autodock/final/1A3N/heme_Fe/dock.dpf
DOCKED: USER  
DOCKED: USER    Estimated Free Energy of Binding    =  -12.34 kcal/mol  [=(1)+(2)+(3)-(4)]
DOCKED: USER    Estimated Inhibition Constant, Ki   =  893.69 pM (picomolar)  [Temperature = 298.15 K]
DOCKED: USER    
DOCKED: USER    (1) Final Intermolecular Energy     =  -15.33 kcal/mol
DOCKED: USER        vdW + Hbond + desolv Energy     =  -12.46 kcal/mol
DOCKED: USER        Electrostatic Energy            =   -2.87 kcal/mol
DOCKED: USER    (2) Final Total Internal Energy     =   -1.56 kcal/mol
DOCKED: USER    (3) Torsional Free Energy           =   +2.98 kcal/mol
DOCKED: USER    (4) Unbound System's Energy  [=(2)] =   -1.56 kcal/mol
DOCKED: USER    
DOCKED: USER    
DOCKED: USER    NEWDPF move heme_Fe_opt.pdbqt
DOCKED: USER    NEWDPF about -0.174000 -0.001000 -0.047000
DOCKED: USER    NEWDPF tran0 7.670205 12.140828 29.227564
DOCKED: USER    NEWDPF quaternion0 0.265637 -0.680233 0.030868 0.682471
DOCKED: USER    NEWDPF axisangle0 0.363432 -0.930663 0.042232 93.925926
DOCKED: USER    NEWDPF quat0 0.363432 -0.930663 0.042232 93.925926
DOCKED: USER    NEWDPF dihe0 63.28 -76.25 70.26 179.69 -161.53 93.95 -51.79 -55.16 164.42 3.62 
DOCKED: USER  keepresnum = 1 
DOCKED: USER  
DOCKED: REMARK  10 active torsions:
DOCKED: REMARK  status: ('A' for Active; 'I' for Inactive)
DOCKED: REMARK    1  A    between atoms: C_6  and  C_10 
DOCKED: REMARK    2  A    between atoms: C_10  and  C_11 
DOCKED: REMARK    3  A    between atoms: C_11  and  C_12 
DOCKED: REMARK    4  A    between atoms: C_12  and  O_14 
DOCKED: REMARK    5  A    between atoms: C_17  and  C_20 
DOCKED: REMARK    6  A    between atoms: C_24  and  C_27 
DOCKED: REMARK    7  A    between atoms: C_31  and  C_34 
DOCKED: REMARK    8  A    between atoms: C_34  and  C_35 
DOCKED: REMARK    9  A    between atoms: C_35  and  C_36 
DOCKED: REMARK   10  A    between atoms: C_36  and  O_38 
DOCKED: USER                              x       y       z     vdW  Elec       q    Type
DOCKED: USER                           _______ _______ _______ _____ _____    ______ ____
DOCKED: ROOT
DOCKED: ATOM      1  C   UNL d   1       8.048  13.060  31.023 -0.19 +0.02    +0.064 C 
DOCKED: ATOM      2  C   UNL d   1       9.191   8.675  29.050 -0.28 +0.01    +0.064 A 
DOCKED: ATOM      3  C   UNL d   1       7.939  10.368  24.733 -0.37 +0.00    +0.064 C 
DOCKED: ATOM      4  C   UNL d   1       6.727  14.586  26.638 -0.45 +0.01    +0.064 C 
DOCKED: ATOM      5  C   UNL d   1       8.407  11.642  30.881 -0.07 +0.02    +0.066 A 
DOCKED: ATOM      6  C   UNL d   1       8.717  10.796  31.932 -0.35 -0.01    -0.021 A 
DOCKED: ATOM      7  C   UNL d   1       9.038   9.579  31.383 -0.40 -0.01    -0.025 A 
DOCKED: ATOM      8  C   UNL d   1       8.911   9.730  30.016 -0.38 +0.02    +0.066 A 
DOCKED: ATOM      9  C   UNL d   1       9.425   8.344  32.138 -0.44 +0.01    +0.051 C 
DOCKED: ATOM     10  C   UNL d   1       9.022   8.776  27.731 -0.39 +0.01    +0.066 A 
DOCKED: ATOM     11  C   UNL d   1       9.407   7.788  26.822 -0.43 -0.00    -0.021 A 
DOCKED: ATOM     12  C   UNL d   1       9.072   8.260  25.568 -0.46 +0.00    +0.000 A 
DOCKED: ATOM     13  C   UNL d   1       8.501   9.527  25.778 -0.37 +0.01    +0.070 A 
DOCKED: ATOM     14  C   UNL d   1      10.123   6.488  27.126 -0.44 +0.01    +0.052 C 
DOCKED: ATOM     15  C   UNL d   1       7.436  11.610  24.924 -0.32 +0.00    +0.066 A 
DOCKED: ATOM     16  C   UNL d   1       6.818  12.341  23.918 -0.32 -0.00    -0.021 A 
DOCKED: ATOM     17  C   UNL d   1       6.470  13.559  24.464 -0.39 +0.00    +0.000 A 
DOCKED: ATOM     18  C   UNL d   1       6.890  13.545  25.792 -0.35 +0.01    +0.070 A 
DOCKED: ATOM     19  C   UNL d   1       6.584  11.923  22.491 -0.31 +0.00    +0.052 C 
DOCKED: ATOM     20  C   UNL d   1       7.100  14.584  28.057 -0.37 +0.01    +0.066 A 
DOCKED: ATOM     21  C   UNL d   1       7.123  15.711  28.890 -0.37 -0.00    -0.025 A 
DOCKED: ATOM     22  C   UNL d   1       7.490  15.252  30.138 -0.34 -0.01    -0.021 A 
DOCKED: ATOM     23  C   UNL d   1       7.681  13.870  30.017 -0.20 +0.02    +0.066 A 
DOCKED: ATOM     24  C   UNL d   1       6.822  17.150  28.539 +0.18 +0.01    +0.051 C 
DOCKED: ATOM     25  N   UNL d   1       8.517  10.983  29.714 -0.24 -0.06    -0.248 N 
DOCKED: ATOM     26  N   UNL d   1       8.478   9.846  27.096 -0.23 -0.03    -0.248 N 
DOCKED: ATOM     27  N   UNL d   1       7.444  12.331  26.088 -0.23 -0.01    -0.248 N 
DOCKED: ATOM     28  N   UNL d   1       7.485  13.476  28.735 -0.20 -0.04    -0.248 N 
DOCKED: ATOM     29 FE   UNL d   1       7.981  11.663  27.915 -0.08 +0.00    +0.000 Fe
DOCKED: ENDROOT
DOCKED: BRANCH   6  30
DOCKED: ATOM     30  C   UNL d   1       8.690  11.118  33.387 -0.31 +0.03    +0.052 C 
DOCKED: BRANCH  30  31
DOCKED: ATOM     31  C   UNL d   1      10.106  11.260  33.935 -0.00 +0.10    +0.115 C 
DOCKED: BRANCH  31  32
DOCKED: ATOM     32  C   UNL d   1      10.255  12.559  34.677 -0.17 +0.14    +0.139 C 
DOCKED: ATOM     33  O   UNL d   1      11.364  13.024  34.902 -0.53 -1.03    -0.650 OA
DOCKED: BRANCH  32  34
DOCKED: ATOM     34  O   UNL d   1       9.167  13.224  35.100 +0.08 -0.61    -0.776 OA
DOCKED: ATOM     35  H   UNL d   1       8.984  14.103  34.740 +0.05 +0.13    +0.167 HD
DOCKED: ENDBRANCH  32  34
DOCKED: ENDBRANCH  31  32
DOCKED: ENDBRANCH  30  31
DOCKED: ENDBRANCH   6  30
DOCKED: BRANCH  22  36
DOCKED: ATOM     36  C   UNL d   1       7.692  16.102  31.365 -0.29 +0.02    +0.052 C 
DOCKED: BRANCH  36  37
DOCKED: ATOM     37  C   UNL d   1       6.467  16.008  32.262 +0.08 +0.08    +0.115 C 
DOCKED: BRANCH  37  38
DOCKED: ATOM     38  C   UNL d   1       6.845  15.555  33.644 +0.12 +0.19    +0.139 C 
DOCKED: ATOM     39  O   UNL d   1       7.070  16.367  34.529 -0.37 -1.03    -0.650 OA
DOCKED: BRANCH  38  40
DOCKED: ATOM     40  O   UNL d   1       6.942  14.241  33.917 -0.00 -1.04    -0.776 OA
DOCKED: ATOM     41  H   UNL d   1       7.820  13.840  33.986 +0.06 +0.15    +0.167 HD
DOCKED: ENDBRANCH  38  40
DOCKED: ENDBRANCH  37  38
DOCKED: ENDBRANCH  36  37
DOCKED: ENDBRANCH  22  36
DOCKED: BRANCH  12  42
DOCKED: ATOM     42  C   UNL d   1       9.314   7.529  24.286 -0.65 +0.00    +0.004 C 
DOCKED: ATOM     43  C   UNL d   1       8.295   7.163  23.497 -0.63 +0.00    +0.012 C 
DOCKED: ENDBRANCH  12  42
DOCKED: BRANCH  17  44
DOCKED: ATOM     44  C   UNL d   1       5.765  14.658  23.766 -0.53 +0.00    +0.004 C 
DOCKED: ATOM     45  C   UNL d   1       6.273  15.894  23.746 -0.56 +0.00    +0.012 C 
DOCKED: ENDBRANCH  17  44
DOCKED: TORSDOF 10
DOCKED: TER
DOCKED: ENDMDL
________________________________________________________________________________


	BEGINNING GENETIC ALGORITHM DOCKING 60 of 100
Run: 60 Seed: 239291871 722231459 [ Run 60 of 100 GA/GALS ]
Beginning LAMARCKIAN GENETIC ALGORITHM (LGA), with a maximum of 25000000 energy evaluations.

Final-Value: -16.239


	FINAL GENETIC ALGORITHM DOCKED STATE
	_______________________________________________


Detailed state:  trans 22.145 6.282 -4.152 quatxyzw -0.763897 0.012479 -0.476784 0.434722 center -0.174 -0.001 -0.047 ntor 10 -58.6463 -180.0000 76.6044 178.9288 87.2896 -152.5612 -48.2704 -57.2069 -169.4631 -19.8739
State:	 22.145   6.282  -4.152  -0.848  0.014 -0.529 128.465    -58.65 -180.00   76.60  178.93   87.29 -152.56  -48.27  -57.21 -169.46  -19.87

DOCKED: MODEL       60
DOCKED: USER    Run = 60
DOCKED: USER    DPF = D:/Protein_go_brrr/autodock/final/1A3N/heme_Fe/dock.dpf
DOCKED: USER  
DOCKED: USER    Estimated Free Energy of Binding    =  -11.77 kcal/mol  [=(1)+(2)+(3)-(4)]
DOCKED: USER    Estimated Inhibition Constant, Ki   =    2.37 nM (nanomolar)  [Temperature = 298.15 K]
DOCKED: USER    
DOCKED: USER    (1) Final Intermolecular Energy     =  -14.75 kcal/mol
DOCKED: USER        vdW + Hbond + desolv Energy     =  -14.09 kcal/mol
DOCKED: USER        Electrostatic Energy            =   -0.66 kcal/mol
DOCKED: USER    (2) Final Total Internal Energy     =   -1.49 kcal/mol
DOCKED: USER    (3) Torsional Free Energy           =   +2.98 kcal/mol
DOCKED: USER    (4) Unbound System's Energy  [=(2)] =   -1.49 kcal/mol
DOCKED: USER    
DOCKED: USER    
DOCKED: USER    NEWDPF move heme_Fe_opt.pdbqt
DOCKED: USER    NEWDPF about -0.174000 -0.001000 -0.047000
DOCKED: USER    NEWDPF tran0 22.144608 6.281820 -4.152202
DOCKED: USER    NEWDPF quaternion0 -0.763897 0.012479 -0.476784 0.434722
DOCKED: USER    NEWDPF axisangle0 -0.848242 0.013857 -0.529428 128.464830
DOCKED: USER    NEWDPF quat0 -0.848242 0.013857 -0.529428 128.464830
DOCKED: USER    NEWDPF dihe0 -58.65 -180.00 76.60 178.93 87.29 -152.56 -48.27 -57.21 -169.46 -19.87 
DOCKED: USER  keepresnum = 1 
DOCKED: USER  
DOCKED: REMARK  10 active torsions:
DOCKED: REMARK  status: ('A' for Active; 'I' for Inactive)
DOCKED: REMARK    1  A    between atoms: C_6  and  C_10 
DOCKED: REMARK    2  A    between atoms: C_10  and  C_11 
DOCKED: REMARK    3  A    between atoms: C_11  and  C_12 
DOCKED: REMARK    4  A    between atoms: C_12  and  O_14 
DOCKED: REMARK    5  A    between atoms: C_17  and  C_20 
DOCKED: REMARK    6  A    between atoms: C_24  and  C_27 
DOCKED: REMARK    7  A    between atoms: C_31  and  C_34 
DOCKED: REMARK    8  A    between atoms: C_34  and  C_35 
DOCKED: REMARK    9  A    between atoms: C_35  and  C_36 
DOCKED: REMARK   10  A    between atoms: C_36  and  O_38 
DOCKED: USER                              x       y       z     vdW  Elec       q    Type
DOCKED: USER                           _______ _______ _______ _____ _____    ______ ____
DOCKED: ROOT
DOCKED: ATOM      1  C   UNL d   1      21.472   5.175  -5.744 -0.35 +0.01    +0.064 C 
DOCKED: ATOM      2  C   UNL d   1      24.765   8.818  -5.181 -0.35 +0.01    +0.064 A 
DOCKED: ATOM      3  C   UNL d   1      24.676   8.071  -0.437 -0.41 +0.00    +0.064 C 
DOCKED: ATOM      4  C   UNL d   1      21.410   4.614  -0.950 -0.44 +0.00    +0.064 C 
DOCKED: ATOM      5  C   UNL d   1      22.344   6.326  -6.018 -0.20 +0.01    +0.066 A 
DOCKED: ATOM      6  C   UNL d   1      22.528   6.900  -7.265 -0.27 -0.01    -0.021 A 
DOCKED: ATOM      7  C   UNL d   1      23.445   7.909  -7.108 -0.29 -0.01    -0.025 A 
DOCKED: ATOM      8  C   UNL d   1      23.787   7.912  -5.770 -0.29 +0.02    +0.066 A 
DOCKED: ATOM      9  C   UNL d   1      23.944   8.824  -8.185 -0.27 +0.03    +0.051 C 
DOCKED: ATOM     10  C   UNL d   1      25.071   8.880  -3.884 -0.39 +0.01    +0.066 A 
DOCKED: ATOM     11  C   UNL d   1      26.094   9.678  -3.366 -0.47 -0.00    -0.021 A 
DOCKED: ATOM     12  C   UNL d   1      26.100   9.468  -2.001 -0.47 +0.00    +0.000 A 
DOCKED: ATOM     13  C   UNL d   1      25.075   8.537  -1.756 -0.36 +0.01    +0.070 A 
DOCKED: ATOM     14  C   UNL d   1      27.064  10.546  -4.141 -0.30 +0.00    +0.052 C 
DOCKED: ATOM     15  C   UNL d   1      23.726   7.137  -0.200 -0.36 +0.00    +0.066 A 
DOCKED: ATOM     16  C   UNL d   1      23.304   6.791   1.078 -0.36 -0.00    -0.021 A 
DOCKED: ATOM     17  C   UNL d   1      22.364   5.792   0.933 -0.42 +0.00    +0.000 A 
DOCKED: ATOM     18  C   UNL d   1      22.238   5.547  -0.433 -0.36 +0.00    +0.070 A 
DOCKED: ATOM     19  C   UNL d   1      23.782   7.359   2.387 -0.47 +0.00    +0.052 C 
DOCKED: ATOM     20  C   UNL d   1      21.205   4.371  -2.383 -0.37 +0.01    +0.066 A 
DOCKED: ATOM     21  C   UNL d   1      20.510   3.283  -2.929 -0.41 -0.00    -0.025 A 
DOCKED: ATOM     22  C   UNL d   1      20.529   3.470  -4.296 -0.40 -0.00    -0.021 A 
DOCKED: ATOM     23  C   UNL d   1      21.237   4.655  -4.529 -0.39 +0.01    +0.066 A 
DOCKED: ATOM     24  C   UNL d   1      19.862   2.121  -2.212 -0.28 +0.01    +0.051 C 
DOCKED: ATOM     25  N   UNL d   1      23.108   6.954  -5.107 -0.19 -0.04    -0.248 N 
DOCKED: ATOM     26  N   UNL d   1      24.454   8.172  -2.904 -0.24 -0.02    -0.248 N 
DOCKED: ATOM     27  N   UNL d   1      23.042   6.404  -1.132 -0.21 -0.01    -0.248 N 
DOCKED: ATOM     28  N   UNL d   1      21.686   5.176  -3.362 -0.25 -0.02    -0.248 N 
DOCKED: ATOM     29 FE   UNL d   1      23.069   6.673  -3.131 -0.08 +0.00    +0.000 Fe
DOCKED: ENDROOT
DOCKED: BRANCH   6  30
DOCKED: ATOM     30  C   UNL d   1      21.851   6.525  -8.539 -0.23 +0.02    +0.052 C 
DOCKED: BRANCH  30  31
DOCKED: ATOM     31  C   UNL d   1      22.507   5.296  -9.158 -0.22 +0.05    +0.115 C 
DOCKED: BRANCH  31  32
DOCKED: ATOM     32  C   UNL d   1      21.466   4.285  -9.552 -0.24 +0.05    +0.139 C 
DOCKED: ATOM     33  O   UNL d   1      20.928   4.340 -10.649 -0.16 -0.21    -0.650 OA
DOCKED: BRANCH  32  34
DOCKED: ATOM     34  O   UNL d   1      21.116   3.309  -8.697 -0.20 -0.23    -0.776 OA
DOCKED: ATOM     35  H   UNL d   1      20.191   3.237  -8.420 +0.08 +0.03    +0.167 HD
DOCKED: ENDBRANCH  32  34
DOCKED: ENDBRANCH  31  32
DOCKED: ENDBRANCH  30  31
DOCKED: ENDBRANCH   6  30
DOCKED: BRANCH  22  36
DOCKED: ATOM     36  C   UNL d   1      19.942   2.535  -5.320 -0.45 +0.00    +0.052 C 
DOCKED: BRANCH  36  37
DOCKED: ATOM     37  C   UNL d   1      18.430   2.704  -5.363 -0.21 +0.03    +0.115 C 
DOCKED: BRANCH  37  38
DOCKED: ATOM     38  C   UNL d   1      17.970   3.085  -6.741 -0.43 +0.04    +0.139 C 
DOCKED: ATOM     39  O   UNL d   1      16.945   3.731  -6.902 -0.10 -0.36    -0.650 OA
DOCKED: BRANCH  38  40
DOCKED: ATOM     40  O   UNL d   1      18.687   2.711  -7.816 +0.07 -0.09    -0.776 OA
DOCKED: ATOM     41  H   UNL d   1      19.498   2.201  -7.685 -0.17 -0.01    +0.167 HD
DOCKED: ENDBRANCH  38  40
DOCKED: ENDBRANCH  37  38
DOCKED: ENDBRANCH  36  37
DOCKED: ENDBRANCH  22  36
DOCKED: BRANCH  12  42
DOCKED: ATOM     42  C   UNL d   1      27.045  10.115  -1.040 -0.40 +0.00    +0.004 C 
DOCKED: ATOM     43  C   UNL d   1      26.591  10.814   0.009 -0.61 +0.00    +0.012 C 
DOCKED: ENDBRANCH  12  42
DOCKED: BRANCH  17  44
DOCKED: ATOM     44  C   UNL d   1      21.621   5.128   2.027 -0.50 +0.00    +0.004 C 
DOCKED: ATOM     45  C   UNL d   1      21.605   3.796   2.135 -0.68 -0.00    +0.012 C 
DOCKED: ENDBRANCH  17  44
DOCKED: TORSDOF 10
DOCKED: TER
DOCKED: ENDMDL
________________________________________________________________________________


	BEGINNING GENETIC ALGORITHM DOCKING 61 of 100
Run: 61 Seed: 287921015 2017047351 [ Run 61 of 100 GA/GALS ]
Beginning LAMARCKIAN GENETIC ALGORITHM (LGA), with a maximum of 25000000 energy evaluations.

Final-Value: -17.642


	FINAL GENETIC ALGORITHM DOCKED STATE
	_______________________________________________


Detailed state:  trans 24.110 6.915 -5.585 quatxyzw 0.160842 0.706003 0.300899 0.620603 center -0.174 -0.001 -0.047 ntor 10 -123.0414 85.4200 63.4243 -127.0749 -118.4849 -64.3590 83.7361 53.3866 5.1297 119.6081
State:	 24.110   6.915  -5.585   0.205  0.900  0.384 103.280   -123.04   85.42   63.42 -127.07 -118.48  -64.36   83.74   53.39    5.13  119.61

DOCKED: MODEL       61
DOCKED: USER    Run = 61
DOCKED: USER    DPF = D:/Protein_go_brrr/autodock/final/1A3N/heme_Fe/dock.dpf
DOCKED: USER  
DOCKED: USER    Estimated Free Energy of Binding    =  -13.67 kcal/mol  [=(1)+(2)+(3)-(4)]
DOCKED: USER    Estimated Inhibition Constant, Ki   =   95.15 pM (picomolar)  [Temperature = 298.15 K]
DOCKED: USER    
DOCKED: USER    (1) Final Intermolecular Energy     =  -16.65 kcal/mol
DOCKED: USER        vdW + Hbond + desolv Energy     =  -13.52 kcal/mol
DOCKED: USER        Electrostatic Energy            =   -3.14 kcal/mol
DOCKED: USER    (2) Final Total Internal Energy     =   -0.99 kcal/mol
DOCKED: USER    (3) Torsional Free Energy           =   +2.98 kcal/mol
DOCKED: USER    (4) Unbound System's Energy  [=(2)] =   -0.99 kcal/mol
DOCKED: USER    
DOCKED: USER    
DOCKED: USER    NEWDPF move heme_Fe_opt.pdbqt
DOCKED: USER    NEWDPF about -0.174000 -0.001000 -0.047000
DOCKED: USER    NEWDPF tran0 24.109674 6.915203 -5.584868
DOCKED: USER    NEWDPF quaternion0 0.160842 0.706003 0.300899 0.620603
DOCKED: USER    NEWDPF axisangle0 0.205123 0.900372 0.383739 103.279563
DOCKED: USER    NEWDPF quat0 0.205123 0.900372 0.383739 103.279563
DOCKED: USER    NEWDPF dihe0 -123.04 85.42 63.42 -127.07 -118.48 -64.36 83.74 53.39 5.13 119.61 
DOCKED: USER  keepresnum = 1 
DOCKED: USER  
DOCKED: REMARK  10 active torsions:
DOCKED: REMARK  status: ('A' for Active; 'I' for Inactive)
DOCKED: REMARK    1  A    between atoms: C_6  and  C_10 
DOCKED: REMARK    2  A    between atoms: C_10  and  C_11 
DOCKED: REMARK    3  A    between atoms: C_11  and  C_12 
DOCKED: REMARK    4  A    between atoms: C_12  and  O_14 
DOCKED: REMARK    5  A    between atoms: C_17  and  C_20 
DOCKED: REMARK    6  A    between atoms: C_24  and  C_27 
DOCKED: REMARK    7  A    between atoms: C_31  and  C_34 
DOCKED: REMARK    8  A    between atoms: C_34  and  C_35 
DOCKED: REMARK    9  A    between atoms: C_35  and  C_36 
DOCKED: REMARK   10  A    between atoms: C_36  and  O_38 
DOCKED: USER                              x       y       z     vdW  Elec       q    Type
DOCKED: USER                           _______ _______ _______ _____ _____    ______ ____
DOCKED: ROOT
DOCKED: ATOM      1  C   UNL d   1      24.012   7.492  -7.552 -0.29 +0.03    +0.064 C 
DOCKED: ATOM      2  C   UNL d   1      21.516   4.286  -4.737 -0.38 +0.01    +0.064 A 
DOCKED: ATOM      3  C   UNL d   1      23.389   6.362  -0.832 -0.38 +0.00    +0.064 C 
DOCKED: ATOM      4  C   UNL d   1      25.895   9.407  -3.540 -0.49 +0.01    +0.064 C 
DOCKED: ATOM      5  C   UNL d   1      23.201   6.344  -7.125 -0.12 +0.02    +0.066 A 
DOCKED: ATOM      6  C   UNL d   1      22.594   5.442  -7.983 -0.29 -0.01    -0.021 A 
DOCKED: ATOM      7  C   UNL d   1      21.898   4.554  -7.201 -0.36 -0.01    -0.025 A 
DOCKED: ATOM      8  C   UNL d   1      22.108   4.948  -5.893 -0.33 +0.01    +0.066 A 
DOCKED: ATOM      9  C   UNL d   1      21.097   3.386  -7.689 -0.46 +0.01    +0.051 C 
DOCKED: ATOM     10  C   UNL d   1      21.748   4.610  -3.464 -0.38 +0.01    +0.066 A 
DOCKED: ATOM     11  C   UNL d   1      21.079   4.032  -2.383 -0.41 -0.00    -0.021 A 
DOCKED: ATOM     12  C   UNL d   1      21.589   4.626  -1.246 -0.41 +0.00    +0.000 A 
DOCKED: ATOM     13  C   UNL d   1      22.547   5.550  -1.697 -0.33 +0.00    +0.070 A 
DOCKED: ATOM     14  C   UNL d   1      19.959   3.013  -2.434 -0.28 +0.01    +0.052 C 
DOCKED: ATOM     15  C   UNL d   1      24.275   7.290  -1.262 -0.35 +0.00    +0.066 A 
DOCKED: ATOM     16  C   UNL d   1      25.132   7.973  -0.409 -0.37 -0.00    -0.021 A 
DOCKED: ATOM     17  C   UNL d   1      25.854   8.855  -1.187 -0.42 +0.00    +0.000 A 
DOCKED: ATOM     18  C   UNL d   1      25.416   8.691  -2.499 -0.38 +0.01    +0.070 A 
DOCKED: ATOM     19  C   UNL d   1      25.253   7.824   1.084 -0.41 +0.00    +0.052 C 
DOCKED: ATOM     20  C   UNL d   1      25.503   9.219  -4.942 -0.39 +0.01    +0.066 A 
DOCKED: ATOM     21  C   UNL d   1      25.836  10.079  -5.999 -0.32 -0.01    -0.025 A 
DOCKED: ATOM     22  C   UNL d   1      25.301   9.508  -7.134 -0.31 -0.01    -0.021 A 
DOCKED: ATOM     23  C   UNL d   1      24.659   8.332  -6.728 -0.30 +0.03    +0.066 A 
DOCKED: ATOM     24  C   UNL d   1      26.614  11.374  -5.951 -0.30 +0.01    +0.051 C 
DOCKED: ATOM     25  N   UNL d   1      22.909   6.031  -5.850 +0.22 -0.06    -0.248 N 
DOCKED: ATOM     26  N   UNL d   1      22.638   5.548  -3.050 -0.24 -0.03    -0.248 N 
DOCKED: ATOM     27  N   UNL d   1      24.477   7.699  -2.553 -0.23 -0.02    -0.248 N 
DOCKED: ATOM     28  N   UNL d   1      24.747   8.184  -5.383 -0.22 -0.06    -0.248 N 
DOCKED: ATOM     29 FE   UNL d   1      23.694   6.868  -4.216 -0.08 +0.00    +0.000 Fe
DOCKED: ENDROOT
DOCKED: BRANCH   6  30
DOCKED: ATOM     30  C   UNL d   1      22.686   5.410  -9.470 -0.23 +0.02    +0.052 C 
DOCKED: BRANCH  30  31
DOCKED: ATOM     31  C   UNL d   1      23.791   4.463  -9.923 -0.28 +0.06    +0.115 C 
DOCKED: BRANCH  31  32
DOCKED: ATOM     32  C   UNL d   1      25.060   5.224 -10.191 -0.16 +0.16    +0.139 C 
DOCKED: ATOM     33  O   UNL d   1      25.559   5.231 -11.307 -0.02 -1.01    -0.650 OA
DOCKED: BRANCH  32  34
DOCKED: ATOM     34  O   UNL d   1      25.658   5.907  -9.201 -0.27 -1.24    -0.776 OA
DOCKED: ATOM     35  H   UNL d   1      25.917   5.437  -8.396 -0.36 +0.10    +0.167 HD
DOCKED: ENDBRANCH  32  34
DOCKED: ENDBRANCH  31  32
DOCKED: ENDBRANCH  30  31
DOCKED: ENDBRANCH   6  30
DOCKED: BRANCH  22  36
DOCKED: ATOM     36  C   UNL d   1      25.361  10.087  -8.523 -0.25 +0.04    +0.052 C 
DOCKED: BRANCH  36  37
DOCKED: ATOM     37  C   UNL d   1      24.061   9.795  -9.258 -0.19 +0.08    +0.115 C 
DOCKED: BRANCH  37  38
DOCKED: ATOM     38  C   UNL d   1      24.328   9.144 -10.586 -0.08 +0.17    +0.139 C 
DOCKED: ATOM     39  O   UNL d   1      24.925   9.743 -11.468 -0.44 -0.87    -0.650 OA
DOCKED: BRANCH  38  40
DOCKED: ATOM     40  O   UNL d   1      23.904   7.888 -10.814 +0.04 -0.96    -0.776 OA
DOCKED: ATOM     41  H   UNL d   1      24.514   7.152 -10.666 +0.04 +0.32    +0.167 HD
DOCKED: ENDBRANCH  38  40
DOCKED: ENDBRANCH  37  38
DOCKED: ENDBRANCH  36  37
DOCKED: ENDBRANCH  22  36
DOCKED: BRANCH  12  42
DOCKED: ATOM     42  C   UNL d   1      21.152   4.317   0.151 -0.56 +0.00    +0.004 C 
DOCKED: ATOM     43  C   UNL d   1      21.969   3.689   1.006 -0.60 +0.00    +0.012 C 
DOCKED: ENDBRANCH  12  42
DOCKED: BRANCH  17  44
DOCKED: ATOM     44  C   UNL d   1      26.908   9.778  -0.710 -0.57 +0.00    +0.004 C 
DOCKED: ATOM     45  C   UNL d   1      26.593  10.871  -0.006 -0.60 +0.00    +0.012 C 
DOCKED: ENDBRANCH  17  44
DOCKED: TORSDOF 10
DOCKED: TER
DOCKED: ENDMDL
________________________________________________________________________________


	BEGINNING GENETIC ALGORITHM DOCKING 62 of 100
Run: 62 Seed: 1605392565 282692065 [ Run 62 of 100 GA/GALS ]
Beginning LAMARCKIAN GENETIC ALGORITHM (LGA), with a maximum of 25000000 energy evaluations.

Final-Value: -17.545


	FINAL GENETIC ALGORITHM DOCKED STATE
	_______________________________________________


Detailed state:  trans 24.087 -6.533 32.623 quatxyzw -0.682167 -0.126191 0.719650 0.028774 center -0.174 -0.001 -0.047 ntor 10 -55.1846 -81.8150 71.4230 -114.3471 -179.8951 149.6052 71.3065 -71.4430 -15.8457 -46.2093
State:	 24.087  -6.533  32.623  -0.682 -0.126  0.720 176.702    -55.18  -81.81   71.42 -114.35 -179.90  149.61   71.31  -71.44  -15.85  -46.21

DOCKED: MODEL       62
DOCKED: USER    Run = 62
DOCKED: USER    DPF = D:/Protein_go_brrr/autodock/final/1A3N/heme_Fe/dock.dpf
DOCKED: USER  
DOCKED: USER    Estimated Free Energy of Binding    =  -12.71 kcal/mol  [=(1)+(2)+(3)-(4)]
DOCKED: USER    Estimated Inhibition Constant, Ki   =  485.05 pM (picomolar)  [Temperature = 298.15 K]
DOCKED: USER    
DOCKED: USER    (1) Final Intermolecular Energy     =  -15.69 kcal/mol
DOCKED: USER        vdW + Hbond + desolv Energy     =  -13.18 kcal/mol
DOCKED: USER        Electrostatic Energy            =   -2.51 kcal/mol
DOCKED: USER    (2) Final Total Internal Energy     =   -1.86 kcal/mol
DOCKED: USER    (3) Torsional Free Energy           =   +2.98 kcal/mol
DOCKED: USER    (4) Unbound System's Energy  [=(2)] =   -1.86 kcal/mol
DOCKED: USER    
DOCKED: USER    
DOCKED: USER    NEWDPF move heme_Fe_opt.pdbqt
DOCKED: USER    NEWDPF about -0.174000 -0.001000 -0.047000
DOCKED: USER    NEWDPF tran0 24.087425 -6.533412 32.622637
DOCKED: USER    NEWDPF quaternion0 -0.682167 -0.126191 0.719650 0.028774
DOCKED: USER    NEWDPF axisangle0 -0.682450 -0.126243 0.719948 176.702262
DOCKED: USER    NEWDPF quat0 -0.682450 -0.126243 0.719948 176.702262
DOCKED: USER    NEWDPF dihe0 -55.18 -81.81 71.42 -114.35 -179.90 149.61 71.31 -71.44 -15.85 -46.21 
DOCKED: USER  keepresnum = 1 
DOCKED: USER  
DOCKED: REMARK  10 active torsions:
DOCKED: REMARK  status: ('A' for Active; 'I' for Inactive)
DOCKED: REMARK    1  A    between atoms: C_6  and  C_10 
DOCKED: REMARK    2  A    between atoms: C_10  and  C_11 
DOCKED: REMARK    3  A    between atoms: C_11  and  C_12 
DOCKED: REMARK    4  A    between atoms: C_12  and  O_14 
DOCKED: REMARK    5  A    between atoms: C_17  and  C_20 
DOCKED: REMARK    6  A    between atoms: C_24  and  C_27 
DOCKED: REMARK    7  A    between atoms: C_31  and  C_34 
DOCKED: REMARK    8  A    between atoms: C_34  and  C_35 
DOCKED: REMARK    9  A    between atoms: C_35  and  C_36 
DOCKED: REMARK   10  A    between atoms: C_36  and  O_38 
DOCKED: USER                              x       y       z     vdW  Elec       q    Type
DOCKED: USER                           _______ _______ _______ _____ _____    ______ ____
DOCKED: ROOT
DOCKED: ATOM      1  C   UNL d   1      23.690  -6.853  34.610 -0.31 +0.02    +0.064 C 
DOCKED: ATOM      2  C   UNL d   1      22.922  -3.119  31.464 -0.44 +0.01    +0.064 A 
DOCKED: ATOM      3  C   UNL d   1      23.821  -6.104  27.810 -0.44 +0.00    +0.064 C 
DOCKED: ATOM      4  C   UNL d   1      24.671  -9.705  30.842 -0.45 +0.00    +0.064 C 
DOCKED: ATOM      5  C   UNL d   1      23.473  -5.505  34.067 -0.19 +0.01    +0.066 A 
DOCKED: ATOM      6  C   UNL d   1      23.293  -4.364  34.832 -0.30 -0.00    -0.021 A 
DOCKED: ATOM      7  C   UNL d   1      23.076  -3.328  33.958 -0.40 -0.00    -0.025 A 
DOCKED: ATOM      8  C   UNL d   1      23.132  -3.877  32.691 -0.38 +0.01    +0.066 A 
DOCKED: ATOM      9  C   UNL d   1      22.848  -1.894  34.327 -0.47 +0.00    +0.051 C 
DOCKED: ATOM     10  C   UNL d   1      23.028  -3.612  30.229 -0.41 +0.01    +0.066 A 
DOCKED: ATOM     11  C   UNL d   1      22.709  -2.890  29.077 -0.46 -0.00    -0.021 A 
DOCKED: ATOM     12  C   UNL d   1      22.943  -3.734  28.010 -0.47 +0.00    +0.000 A 
DOCKED: ATOM     13  C   UNL d   1      23.390  -4.943  28.573 -0.38 +0.00    +0.070 A 
DOCKED: ATOM     14  C   UNL d   1      22.143  -1.487  28.999 -0.57 +0.00    +0.052 C 
DOCKED: ATOM     15  C   UNL d   1      24.202  -7.287  28.348 -0.38 +0.00    +0.066 A 
DOCKED: ATOM     16  C   UNL d   1      24.701  -8.338  27.590 -0.41 -0.00    -0.021 A 
DOCKED: ATOM     17  C   UNL d   1      24.944  -9.379  28.462 -0.49 +0.00    +0.000 A 
DOCKED: ATOM     18  C   UNL d   1      24.582  -8.939  29.733 -0.38 +0.00    +0.070 A 
DOCKED: ATOM     19  C   UNL d   1      24.919  -8.375  26.102 -0.48 +0.00    +0.052 C 
DOCKED: ATOM     20  C   UNL d   1      24.358  -9.256  32.204 -0.34 +0.01    +0.066 A 
DOCKED: ATOM     21  C   UNL d   1      24.253 -10.088  33.327 -0.29 -0.00    -0.025 A 
DOCKED: ATOM     22  C   UNL d   1      23.986  -9.253  34.392 -0.28 -0.01    -0.021 A 
DOCKED: ATOM     23  C   UNL d   1      23.932  -7.952  33.878 -0.31 +0.01    +0.066 A 
DOCKED: ATOM     24  C   UNL d   1      24.392 -11.591  33.404 +0.19 +0.01    +0.051 C 
DOCKED: ATOM     25  N   UNL d   1      23.383  -5.200  32.761 -0.21 -0.04    -0.248 N 
DOCKED: ATOM     26  N   UNL d   1      23.433  -4.872  29.926 -0.25 -0.02    -0.248 N 
DOCKED: ATOM     27  N   UNL d   1      24.167  -7.638  29.671 -0.21 -0.00    -0.248 N 
DOCKED: ATOM     28  N   UNL d   1      24.115  -7.965  32.536 -0.22 -0.03    -0.248 N 
DOCKED: ATOM     29 FE   UNL d   1      23.774  -6.420  31.230 -0.09 +0.00    +0.000 Fe
DOCKED: ENDROOT
DOCKED: BRANCH   6  30
DOCKED: ATOM     30  C   UNL d   1      23.345  -4.257  36.318 -0.23 +0.01    +0.052 C 
DOCKED: BRANCH  30  31
DOCKED: ATOM     31  C   UNL d   1      24.782  -4.362  36.817 -0.20 +0.04    +0.115 C 
DOCKED: BRANCH  31  32
DOCKED: ATOM     32  C   UNL d   1      25.002  -5.677  37.514 -0.15 +0.08    +0.139 C 
DOCKED: ATOM     33  O   UNL d   1      26.094  -5.956  37.988 -0.06 -0.74    -0.650 OA
DOCKED: BRANCH  32  34
DOCKED: ATOM     34  O   UNL d   1      23.995  -6.560  37.621 +0.04 -0.36    -0.776 OA
DOCKED: ATOM     35  H   UNL d   1      24.123  -7.461  37.292 +0.04 +0.09    +0.167 HD
DOCKED: ENDBRANCH  32  34
DOCKED: ENDBRANCH  31  32
DOCKED: ENDBRANCH  30  31
DOCKED: ENDBRANCH   6  30
DOCKED: BRANCH  22  36
DOCKED: ATOM     36  C   UNL d   1      23.747  -9.689  35.814 -0.22 +0.02    +0.052 C 
DOCKED: BRANCH  36  37
DOCKED: ATOM     37  C   UNL d   1      24.869 -10.615  36.262 -0.16 +0.05    +0.115 C 
DOCKED: BRANCH  37  38
DOCKED: ATOM     38  C   UNL d   1      25.775  -9.928  37.243 +0.03 +0.14    +0.139 C 
DOCKED: ATOM     39  O   UNL d   1      26.354 -10.564  38.112 -0.06 -0.60    -0.650 OA
DOCKED: BRANCH  38  40
DOCKED: ATOM     40  O   UNL d   1      25.954  -8.597  37.173 -0.09 -1.47    -0.776 OA
DOCKED: ATOM     41  H   UNL d   1      25.441  -8.022  37.758 +0.02 +0.23    +0.167 HD
DOCKED: ENDBRANCH  38  40
DOCKED: ENDBRANCH  37  38
DOCKED: ENDBRANCH  36  37
DOCKED: ENDBRANCH  22  36
DOCKED: BRANCH  12  42
DOCKED: ATOM     42  C   UNL d   1      22.726  -3.379  26.573 -0.57 +0.00    +0.004 C 
DOCKED: ATOM     43  C   UNL d   1      23.740  -3.391  25.699 -0.59 -0.00    +0.012 C 
DOCKED: ENDBRANCH  12  42
DOCKED: BRANCH  17  44
DOCKED: ATOM     44  C   UNL d   1      25.505 -10.702  28.105 -0.53 -0.00    +0.004 C 
DOCKED: ATOM     45  C   UNL d   1      24.874 -11.503  27.241 -0.64 -0.00    +0.012 C 
DOCKED: ENDBRANCH  17  44
DOCKED: TORSDOF 10
DOCKED: TER
DOCKED: ENDMDL
________________________________________________________________________________


	BEGINNING GENETIC ALGORITHM DOCKING 63 of 100
Run: 63 Seed: 456884823 1805409737 [ Run 63 of 100 GA/GALS ]
Beginning LAMARCKIAN GENETIC ALGORITHM (LGA), with a maximum of 25000000 energy evaluations.

Final-Value: -16.661


	FINAL GENETIC ALGORITHM DOCKED STATE
	_______________________________________________


Detailed state:  trans 24.433 -7.419 32.461 quatxyzw 0.649700 0.228187 -0.725127 0.003457 center -0.174 -0.001 -0.047 ntor 10 76.7421 -110.7681 77.8853 -128.2347 -121.7324 -163.3727 34.3071 39.4177 -6.4002 146.1702
State:	 24.433  -7.419  32.461   0.650  0.228 -0.725 179.604     76.74 -110.77   77.89 -128.23 -121.73 -163.37   34.31   39.42   -6.40  146.17

DOCKED: MODEL       63
DOCKED: USER    Run = 63
DOCKED: USER    DPF = D:/Protein_go_brrr/autodock/final/1A3N/heme_Fe/dock.dpf
DOCKED: USER  
DOCKED: USER    Estimated Free Energy of Binding    =  -12.12 kcal/mol  [=(1)+(2)+(3)-(4)]
DOCKED: USER    Estimated Inhibition Constant, Ki   =    1.30 nM (nanomolar)  [Temperature = 298.15 K]
DOCKED: USER    
DOCKED: USER    (1) Final Intermolecular Energy     =  -15.10 kcal/mol
DOCKED: USER        vdW + Hbond + desolv Energy     =  -13.58 kcal/mol
DOCKED: USER        Electrostatic Energy            =   -1.53 kcal/mol
DOCKED: USER    (2) Final Total Internal Energy     =   -1.56 kcal/mol
DOCKED: USER    (3) Torsional Free Energy           =   +2.98 kcal/mol
DOCKED: USER    (4) Unbound System's Energy  [=(2)] =   -1.56 kcal/mol
DOCKED: USER    
DOCKED: USER    
DOCKED: USER    NEWDPF move heme_Fe_opt.pdbqt
DOCKED: USER    NEWDPF about -0.174000 -0.001000 -0.047000
DOCKED: USER    NEWDPF tran0 24.432680 -7.419490 32.460587
DOCKED: USER    NEWDPF quaternion0 0.649700 0.228187 -0.725127 0.003457
DOCKED: USER    NEWDPF axisangle0 0.649703 0.228188 -0.725131 179.603823
DOCKED: USER    NEWDPF quat0 0.649703 0.228188 -0.725131 179.603823
DOCKED: USER    NEWDPF dihe0 76.74 -110.77 77.89 -128.23 -121.73 -163.37 34.31 39.42 -6.40 146.17 
DOCKED: USER  keepresnum = 1 
DOCKED: USER  
DOCKED: REMARK  10 active torsions:
DOCKED: REMARK  status: ('A' for Active; 'I' for Inactive)
DOCKED: REMARK    1  A    between atoms: C_6  and  C_10 
DOCKED: REMARK    2  A    between atoms: C_10  and  C_11 
DOCKED: REMARK    3  A    between atoms: C_11  and  C_12 
DOCKED: REMARK    4  A    between atoms: C_12  and  O_14 
DOCKED: REMARK    5  A    between atoms: C_17  and  C_20 
DOCKED: REMARK    6  A    between atoms: C_24  and  C_27 
DOCKED: REMARK    7  A    between atoms: C_31  and  C_34 
DOCKED: REMARK    8  A    between atoms: C_34  and  C_35 
DOCKED: REMARK    9  A    between atoms: C_35  and  C_36 
DOCKED: REMARK   10  A    between atoms: C_36  and  O_38 
DOCKED: USER                              x       y       z     vdW  Elec       q    Type
DOCKED: USER                           _______ _______ _______ _____ _____    ______ ____
DOCKED: ROOT
DOCKED: ATOM      1  C   UNL d   1      24.222  -8.138  34.371 -0.32 +0.02    +0.064 C 
DOCKED: ATOM      2  C   UNL d   1      22.867  -3.994  32.041 -0.40 +0.01    +0.064 A 
DOCKED: ATOM      3  C   UNL d   1      23.756  -6.148  27.841 -0.44 +0.00    +0.064 C 
DOCKED: ATOM      4  C   UNL d   1      25.172 -10.132  30.079 -0.49 +0.00    +0.064 C 
DOCKED: ATOM      5  C   UNL d   1      23.838  -6.744  34.108 -0.24 +0.02    +0.066 A 
DOCKED: ATOM      6  C   UNL d   1      23.611  -5.788  35.084 -0.25 -0.01    -0.021 A 
DOCKED: ATOM      7  C   UNL d   1      23.231  -4.639  34.436 -0.32 -0.00    -0.025 A 
DOCKED: ATOM      8  C   UNL d   1      23.241  -4.938  33.088 -0.33 +0.01    +0.066 A 
DOCKED: ATOM      9  C   UNL d   1      22.900  -3.329  35.083 -0.36 +0.01    +0.051 C 
DOCKED: ATOM     10  C   UNL d   1      22.922  -4.239  30.731 -0.40 +0.01    +0.066 A 
DOCKED: ATOM     11  C   UNL d   1      22.449  -3.357  29.757 -0.44 -0.00    -0.021 A 
DOCKED: ATOM     12  C   UNL d   1      22.679  -3.962  28.538 -0.46 +0.00    +0.000 A 
DOCKED: ATOM     13  C   UNL d   1      23.278  -5.198  28.834 -0.38 +0.00    +0.070 A 
DOCKED: ATOM     14  C   UNL d   1      21.750  -2.031  29.980 -0.27 +0.01    +0.052 C 
DOCKED: ATOM     15  C   UNL d   1      24.286  -7.362  28.121 -0.39 +0.00    +0.066 A 
DOCKED: ATOM     16  C   UNL d   1      24.822  -8.198  27.150 -0.40 -0.00    -0.021 A 
DOCKED: ATOM     17  C   UNL d   1      25.228  -9.349  27.793 -0.48 +0.00    +0.000 A 
DOCKED: ATOM     18  C   UNL d   1      24.926  -9.189  29.143 -0.40 +0.00    +0.070 A 
DOCKED: ATOM     19  C   UNL d   1      24.927  -7.938  25.671 -0.47 +0.00    +0.052 C 
DOCKED: ATOM     20  C   UNL d   1      24.924  -9.975  31.518 -0.38 +0.01    +0.066 A 
DOCKED: ATOM     21  C   UNL d   1      24.985 -11.005  32.467 -0.31 -0.00    -0.025 A 
DOCKED: ATOM     22  C   UNL d   1      24.723 -10.412  33.685 -0.27 -0.00    -0.021 A 
DOCKED: ATOM     23  C   UNL d   1      24.508  -9.052  33.431 -0.30 +0.01    +0.066 A 
DOCKED: ATOM     24  C   UNL d   1      25.268 -12.473  32.249 -0.18 +0.00    +0.051 C 
DOCKED: ATOM     25  N   UNL d   1      23.619  -6.216  32.891 -0.22 -0.03    -0.248 N 
DOCKED: ATOM     26  N   UNL d   1      23.419  -5.372  30.171 -0.23 -0.01    -0.248 N 
DOCKED: ATOM     27  N   UNL d   1      24.387  -7.951  29.353 -0.23 -0.01    -0.248 N 
DOCKED: ATOM     28  N   UNL d   1      24.587  -8.800  32.102 -0.24 -0.03    -0.248 N 
DOCKED: ATOM     29 FE   UNL d   1      24.004  -7.088  31.136 -0.09 -0.00    +0.000 Fe
DOCKED: ENDROOT
DOCKED: BRANCH   6  30
DOCKED: ATOM     30  C   UNL d   1      23.768  -5.949  36.558 -0.21 +0.02    +0.052 C 
DOCKED: BRANCH  30  31
DOCKED: ATOM     31  C   UNL d   1      25.223  -5.759  36.970 -0.20 +0.07    +0.115 C 
DOCKED: BRANCH  31  32
DOCKED: ATOM     32  C   UNL d   1      25.566  -6.660  38.124 -0.03 +0.16    +0.139 C 
DOCKED: ATOM     33  O   UNL d   1      25.979  -6.196  39.177 -0.03 -0.61    -0.650 OA
DOCKED: BRANCH  32  34
DOCKED: ATOM     34  O   UNL d   1      25.419  -7.991  38.006 -0.55 -1.03    -0.776 OA
DOCKED: ATOM     35  H   UNL d   1      24.659  -8.418  38.424 +0.02 +0.12    +0.167 HD
DOCKED: ENDBRANCH  32  34
DOCKED: ENDBRANCH  31  32
DOCKED: ENDBRANCH  30  31
DOCKED: ENDBRANCH   6  30
DOCKED: BRANCH  22  36
DOCKED: ATOM     36  C   UNL d   1      24.637 -11.124  35.009 -0.21 +0.01    +0.052 C 
DOCKED: BRANCH  36  37
DOCKED: ATOM     37  C   UNL d   1      23.230 -10.991  35.573 -0.18 +0.02    +0.115 C 
DOCKED: BRANCH  37  38
DOCKED: ATOM     38  C   UNL d   1      23.262 -10.792  37.062 -0.12 +0.03    +0.139 C 
DOCKED: ATOM     39  O   UNL d   1      22.258 -10.962  37.737 +0.00 -0.11    -0.650 OA
DOCKED: BRANCH  38  40
DOCKED: ATOM     40  O   UNL d   1      24.405 -10.418  37.664 +0.03 -0.33    -0.776 OA
DOCKED: ATOM     41  H   UNL d   1      24.749  -9.528  37.509 +0.03 +0.11    +0.167 HD
DOCKED: ENDBRANCH  38  40
DOCKED: ENDBRANCH  37  38
DOCKED: ENDBRANCH  36  37
DOCKED: ENDBRANCH  22  36
DOCKED: BRANCH  12  42
DOCKED: ATOM     42  C   UNL d   1      22.319  -3.375  27.210 -0.55 +0.00    +0.004 C 
DOCKED: ATOM     43  C   UNL d   1      23.237  -3.238  26.245 -0.63 +0.00    +0.012 C 
DOCKED: ENDBRANCH  12  42
DOCKED: BRANCH  17  44
DOCKED: ATOM     44  C   UNL d   1      25.881 -10.517  27.159 -0.56 -0.00    +0.004 C 
DOCKED: ATOM     45  C   UNL d   1      25.179 -11.370  26.407 -0.69 -0.00    +0.012 C 
DOCKED: ENDBRANCH  17  44
DOCKED: TORSDOF 10
DOCKED: TER
DOCKED: ENDMDL
________________________________________________________________________________


	BEGINNING GENETIC ALGORITHM DOCKING 64 of 100
Run: 64 Seed: 1266165396 234252744 [ Run 64 of 100 GA/GALS ]
Beginning LAMARCKIAN GENETIC ALGORITHM (LGA), with a maximum of 25000000 energy evaluations.

Final-Value: -18.195


	FINAL GENETIC ALGORITHM DOCKED STATE
	_______________________________________________


Detailed state:  trans 1.778 -6.824 -4.646 quatxyzw 0.710117 -0.063092 0.616246 -0.334655 center -0.174 -0.001 -0.047 ntor 10 -129.1531 -22.8280 57.4705 -124.3927 134.8510 -1.3212 76.4208 -80.5864 33.4576 8.5913
State:	  1.778  -6.824  -4.646   0.754 -0.067  0.654 -140.897   -129.15  -22.83   57.47 -124.39  134.85   -1.32   76.42  -80.59   33.46    8.59

DOCKED: MODEL       64
DOCKED: USER    Run = 64
DOCKED: USER    DPF = D:/Protein_go_brrr/autodock/final/1A3N/heme_Fe/dock.dpf
DOCKED: USER  
DOCKED: USER    Estimated Free Energy of Binding    =  -13.21 kcal/mol  [=(1)+(2)+(3)-(4)]
DOCKED: USER    Estimated Inhibition Constant, Ki   =  205.80 pM (picomolar)  [Temperature = 298.15 K]
DOCKED: USER    
DOCKED: USER    (1) Final Intermolecular Energy     =  -16.20 kcal/mol
DOCKED: USER        vdW + Hbond + desolv Energy     =  -13.95 kcal/mol
DOCKED: USER        Electrostatic Energy            =   -2.25 kcal/mol
DOCKED: USER    (2) Final Total Internal Energy     =   -2.00 kcal/mol
DOCKED: USER    (3) Torsional Free Energy           =   +2.98 kcal/mol
DOCKED: USER    (4) Unbound System's Energy  [=(2)] =   -2.00 kcal/mol
DOCKED: USER    
DOCKED: USER    
DOCKED: USER    NEWDPF move heme_Fe_opt.pdbqt
DOCKED: USER    NEWDPF about -0.174000 -0.001000 -0.047000
DOCKED: USER    NEWDPF tran0 1.777623 -6.824051 -4.645903
DOCKED: USER    NEWDPF quaternion0 0.710117 -0.063092 0.616246 -0.334655
DOCKED: USER    NEWDPF axisangle0 0.753567 -0.066952 0.653952 -140.896891
DOCKED: USER    NEWDPF quat0 0.753567 -0.066952 0.653952 -140.896891
DOCKED: USER    NEWDPF dihe0 -129.15 -22.83 57.47 -124.39 134.85 -1.32 76.42 -80.59 33.46 8.59 
DOCKED: USER  keepresnum = 1 
DOCKED: USER  
DOCKED: REMARK  10 active torsions:
DOCKED: REMARK  status: ('A' for Active; 'I' for Inactive)
DOCKED: REMARK    1  A    between atoms: C_6  and  C_10 
DOCKED: REMARK    2  A    between atoms: C_10  and  C_11 
DOCKED: REMARK    3  A    between atoms: C_11  and  C_12 
DOCKED: REMARK    4  A    between atoms: C_12  and  O_14 
DOCKED: REMARK    5  A    between atoms: C_17  and  C_20 
DOCKED: REMARK    6  A    between atoms: C_24  and  C_27 
DOCKED: REMARK    7  A    between atoms: C_31  and  C_34 
DOCKED: REMARK    8  A    between atoms: C_34  and  C_35 
DOCKED: REMARK    9  A    between atoms: C_35  and  C_36 
DOCKED: REMARK   10  A    between atoms: C_36  and  O_38 
DOCKED: USER                              x       y       z     vdW  Elec       q    Type
DOCKED: USER                           _______ _______ _______ _____ _____    ______ ____
DOCKED: ROOT
DOCKED: ATOM      1  C   UNL d   1       1.790  -7.713  -6.496 -0.31 +0.02    +0.064 C 
DOCKED: ATOM      2  C   UNL d   1       4.147  -3.872  -4.464 -0.42 +0.01    +0.064 A 
DOCKED: ATOM      3  C   UNL d   1       2.782  -5.419  -0.126 -0.42 +0.00    +0.064 C 
DOCKED: ATOM      4  C   UNL d   1       0.407  -9.083  -2.079 -0.47 +0.00    +0.064 C 
DOCKED: ATOM      5  C   UNL d   1       2.509  -6.442  -6.332 -0.21 +0.02    +0.066 A 
DOCKED: ATOM      6  C   UNL d   1       2.959  -5.647  -7.374 -0.29 -0.01    -0.021 A 
DOCKED: ATOM      7  C   UNL d   1       3.616  -4.583  -6.808 -0.37 -0.00    -0.025 A 
DOCKED: ATOM      8  C   UNL d   1       3.543  -4.769  -5.442 -0.37 +0.01    +0.066 A 
DOCKED: ATOM      9  C   UNL d   1       4.258  -3.449  -7.547 -0.44 +0.00    +0.051 C 
DOCKED: ATOM     10  C   UNL d   1       4.042  -3.997  -3.140 -0.39 +0.01    +0.066 A 
DOCKED: ATOM     11  C   UNL d   1       4.726  -3.189  -2.228 -0.45 -0.00    -0.021 A 
DOCKED: ATOM     12  C   UNL d   1       4.363  -3.626  -0.970 -0.46 +0.00    +0.000 A 
DOCKED: ATOM     13  C   UNL d   1       3.473  -4.694  -1.181 -0.36 +0.00    +0.070 A 
DOCKED: ATOM     14  C   UNL d   1       5.731  -2.099  -2.541 -0.56 +0.00    +0.052 C 
DOCKED: ATOM     15  C   UNL d   1       1.965  -6.480  -0.321 -0.37 +0.00    +0.066 A 
DOCKED: ATOM     16  C   UNL d   1       1.246  -7.083   0.703 -0.33 -0.00    -0.021 A 
DOCKED: ATOM     17  C   UNL d   1       0.563  -8.142   0.143 -0.44 +0.00    +0.000 A 
DOCKED: ATOM     18  C   UNL d   1       0.885  -8.164  -1.212 -0.38 +0.00    +0.070 A 
DOCKED: ATOM     19  C   UNL d   1       1.220  -6.696   2.157 -0.46 +0.00    +0.052 C 
DOCKED: ATOM     20  C   UNL d   1       0.675  -9.101  -3.522 -0.35 +0.01    +0.066 A 
DOCKED: ATOM     21  C   UNL d   1       0.354 -10.151  -4.393 -0.30 -0.00    -0.025 A 
DOCKED: ATOM     22  C   UNL d   1       0.745  -9.734  -5.648 -0.28 -0.00    -0.021 A 
DOCKED: ATOM     23  C   UNL d   1       1.293  -8.455  -5.494 -0.31 +0.01    +0.066 A 
DOCKED: ATOM     24  C   UNL d   1      -0.284 -11.483  -4.070 -0.12 +0.00    +0.051 C 
DOCKED: ATOM     25  N   UNL d   1       2.861  -5.896  -5.154 -0.20 -0.05    -0.248 N 
DOCKED: ATOM     26  N   UNL d   1       3.284  -4.926  -2.503 -0.24 -0.01    -0.248 N 
DOCKED: ATOM     27  N   UNL d   1       1.713  -7.117  -1.507 -0.23 -0.00    -0.248 N 
DOCKED: ATOM     28  N   UNL d   1       1.288  -8.092  -4.188 -0.23 -0.03    -0.248 N 
DOCKED: ATOM     29 FE   UNL d   1       2.285  -6.511  -3.345 -0.09 +0.00    +0.000 Fe
DOCKED: ENDROOT
DOCKED: BRANCH   6  30
DOCKED: ATOM     30  C   UNL d   1       2.756  -5.874  -8.833 -0.24 +0.02    +0.052 C 
DOCKED: BRANCH  30  31
DOCKED: ATOM     31  C   UNL d   1       2.056  -4.681  -9.473 -0.24 +0.05    +0.115 C 
DOCKED: BRANCH  31  32
DOCKED: ATOM     32  C   UNL d   1       0.608  -4.995  -9.729 -0.16 +0.15    +0.139 C 
DOCKED: ATOM     33  O   UNL d   1      -0.264  -4.187  -9.442 -0.07 -0.94    -0.650 OA
DOCKED: BRANCH  32  34
DOCKED: ATOM     34  O   UNL d   1       0.260  -6.171 -10.277 -0.56 -1.01    -0.776 OA
DOCKED: ATOM     35  H   UNL d   1       0.604  -6.989  -9.891 +0.03 +0.16    +0.167 HD
DOCKED: ENDBRANCH  32  34
DOCKED: ENDBRANCH  31  32
DOCKED: ENDBRANCH  30  31
DOCKED: ENDBRANCH   6  30
DOCKED: BRANCH  22  36
DOCKED: ATOM     36  C   UNL d   1       0.643 -10.542  -6.915 -0.21 +0.01    +0.052 C 
DOCKED: BRANCH  36  37
DOCKED: ATOM     37  C   UNL d   1      -0.498 -10.011  -7.771 -0.16 +0.04    +0.115 C 
DOCKED: BRANCH  37  38
DOCKED: ATOM     38  C   UNL d   1       0.016  -9.096  -8.846 -0.14 +0.08    +0.139 C 
DOCKED: ATOM     39  O   UNL d   1       1.209  -8.842  -8.934 +0.01 -0.26    -0.650 OA
DOCKED: BRANCH  38  40
DOCKED: ATOM     40  O   UNL d   1      -0.840  -8.543  -9.724 -0.01 -0.74    -0.776 OA
DOCKED: ATOM     41  H   UNL d   1      -0.587  -7.728 -10.178 +0.02 +0.21    +0.167 HD
DOCKED: ENDBRANCH  38  40
DOCKED: ENDBRANCH  37  38
DOCKED: ENDBRANCH  36  37
DOCKED: ENDBRANCH  22  36
DOCKED: BRANCH  12  42
DOCKED: ATOM     42  C   UNL d   1       4.867  -3.050   0.315 -0.50 +0.00    +0.004 C 
DOCKED: ATOM     43  C   UNL d   1       4.089  -2.263   1.069 -0.63 +0.00    +0.012 C 
DOCKED: ENDBRANCH  12  42
DOCKED: BRANCH  17  44
DOCKED: ATOM     44  C   UNL d   1      -0.355  -9.061   0.853 -0.57 -0.00    +0.004 C 
DOCKED: ATOM     45  C   UNL d   1       0.114  -9.952   1.733 -0.68 -0.00    +0.012 C 
DOCKED: ENDBRANCH  17  44
DOCKED: TORSDOF 10
DOCKED: TER
DOCKED: ENDMDL
________________________________________________________________________________


	BEGINNING GENETIC ALGORITHM DOCKING 65 of 100
Run: 65 Seed: 1392607359 2095833029 [ Run 65 of 100 GA/GALS ]
Beginning LAMARCKIAN GENETIC ALGORITHM (LGA), with a maximum of 25000000 energy evaluations.

Final-Value: -16.754


	FINAL GENETIC ALGORITHM DOCKED STATE
	_______________________________________________


Detailed state:  trans 8.034 12.215 31.198 quatxyzw -0.028718 0.736566 0.150802 -0.658714 center -0.174 -0.001 -0.047 ntor 10 56.1368 -81.0381 141.0670 163.6900 153.0989 130.6366 -35.1195 84.6576 -178.4720 -179.5098
State:	  8.034  12.215  31.198  -0.038  0.979  0.200 -97.596     56.14  -81.04  141.07  163.69  153.10  130.64  -35.12   84.66 -178.47 -179.51

DOCKED: MODEL       65
DOCKED: USER    Run = 65
DOCKED: USER    DPF = D:/Protein_go_brrr/autodock/final/1A3N/heme_Fe/dock.dpf
DOCKED: USER  
DOCKED: USER    Estimated Free Energy of Binding    =  -12.33 kcal/mol  [=(1)+(2)+(3)-(4)]
DOCKED: USER    Estimated Inhibition Constant, Ki   =  916.60 pM (picomolar)  [Temperature = 298.15 K]
DOCKED: USER    
DOCKED: USER    (1) Final Intermolecular Energy     =  -15.31 kcal/mol
DOCKED: USER        vdW + Hbond + desolv Energy     =  -12.41 kcal/mol
DOCKED: USER        Electrostatic Energy            =   -2.90 kcal/mol
DOCKED: USER    (2) Final Total Internal Energy     =   -1.44 kcal/mol
DOCKED: USER    (3) Torsional Free Energy           =   +2.98 kcal/mol
DOCKED: USER    (4) Unbound System's Energy  [=(2)] =   -1.44 kcal/mol
DOCKED: USER    
DOCKED: USER    
DOCKED: USER    NEWDPF move heme_Fe_opt.pdbqt
DOCKED: USER    NEWDPF about -0.174000 -0.001000 -0.047000
DOCKED: USER    NEWDPF tran0 8.034062 12.214977 31.197646
DOCKED: USER    NEWDPF quaternion0 -0.028718 0.736566 0.150802 -0.658714
DOCKED: USER    NEWDPF axisangle0 -0.038169 0.978964 0.200430 -97.596252
DOCKED: USER    NEWDPF quat0 -0.038169 0.978964 0.200430 -97.596252
DOCKED: USER    NEWDPF dihe0 56.14 -81.04 141.07 163.69 153.10 130.64 -35.12 84.66 -178.47 -179.51 
DOCKED: USER  keepresnum = 1 
DOCKED: USER  
DOCKED: REMARK  10 active torsions:
DOCKED: REMARK  status: ('A' for Active; 'I' for Inactive)
DOCKED: REMARK    1  A    between atoms: C_6  and  C_10 
DOCKED: REMARK    2  A    between atoms: C_10  and  C_11 
DOCKED: REMARK    3  A    between atoms: C_11  and  C_12 
DOCKED: REMARK    4  A    between atoms: C_12  and  O_14 
DOCKED: REMARK    5  A    between atoms: C_17  and  C_20 
DOCKED: REMARK    6  A    between atoms: C_24  and  C_27 
DOCKED: REMARK    7  A    between atoms: C_31  and  C_34 
DOCKED: REMARK    8  A    between atoms: C_34  and  C_35 
DOCKED: REMARK    9  A    between atoms: C_35  and  C_36 
DOCKED: REMARK   10  A    between atoms: C_36  and  O_38 
DOCKED: USER                              x       y       z     vdW  Elec       q    Type
DOCKED: USER                           _______ _______ _______ _____ _____    ______ ____
DOCKED: ROOT
DOCKED: ATOM      1  C   UNL d   1       8.819  11.987  33.080 -0.27 +0.04    +0.064 C 
DOCKED: ATOM      2  C   UNL d   1       8.956   9.340  28.909 -0.38 +0.01    +0.064 A 
DOCKED: ATOM      3  C   UNL d   1       7.337  13.170  26.506 -0.40 +0.00    +0.064 C 
DOCKED: ATOM      4  C   UNL d   1       7.096  15.718  30.547 -0.35 +0.02    +0.064 C 
DOCKED: ATOM      5  C   UNL d   1       8.928  10.862  32.142 -0.30 +0.03    +0.066 A 
DOCKED: ATOM      6  C   UNL d   1       9.261   9.565  32.498 -0.39 -0.01    -0.021 A 
DOCKED: ATOM      7  C   UNL d   1       9.303   8.831  31.339 -0.34 -0.01    -0.025 A 
DOCKED: ATOM      8  C   UNL d   1       8.993   9.709  30.318 -0.38 +0.02    +0.066 A 
DOCKED: ATOM      9  C   UNL d   1       9.604   7.368  31.230 -0.14 +0.01    +0.051 C 
DOCKED: ATOM     10  C   UNL d   1       8.605  10.152  27.911 -0.37 +0.01    +0.066 A 
DOCKED: ATOM     11  C   UNL d   1       8.690   9.803  26.561 -0.40 -0.00    -0.021 A 
DOCKED: ATOM     12  C   UNL d   1       8.245  10.897  25.846 -0.38 +0.00    +0.000 A 
DOCKED: ATOM     13  C   UNL d   1       7.916  11.870  26.806 -0.28 +0.00    +0.070 A 
DOCKED: ATOM     14  C   UNL d   1       9.234   8.515  25.977 -0.47 +0.01    +0.052 C 
DOCKED: ATOM     15  C   UNL d   1       7.067  14.129  27.422 -0.36 +0.01    +0.066 A 
DOCKED: ATOM     16  C   UNL d   1       6.423  15.319  27.108 -0.47 -0.00    -0.021 A 
DOCKED: ATOM     17  C   UNL d   1       6.355  16.057  28.271 -0.47 +0.00    +0.000 A 
DOCKED: ATOM     18  C   UNL d   1       6.965  15.300  29.269 -0.36 +0.01    +0.070 A 
DOCKED: ATOM     19  C   UNL d   1       5.912  15.759  25.762 -0.49 +0.00    +0.052 C 
DOCKED: ATOM     20  C   UNL d   1       7.676  14.924  31.637 -0.26 +0.03    +0.066 A 
DOCKED: ATOM     21  C   UNL d   1       8.000  15.413  32.911 -0.21 -0.02    -0.025 A 
DOCKED: ATOM     22  C   UNL d   1       8.477  14.330  33.620 -0.18 -0.01    -0.021 A 
DOCKED: ATOM     23  C   UNL d   1       8.432  13.231  32.754 -0.22 +0.04    +0.066 A 
DOCKED: ATOM     24  C   UNL d   1       7.875  16.822  33.441 -0.19 +0.03    +0.051 C 
DOCKED: ATOM     25  N   UNL d   1       8.756  10.941  30.811 -0.23 -0.07    -0.248 N 
DOCKED: ATOM     26  N   UNL d   1       8.143  11.419  28.064 -0.22 -0.03    -0.248 N 
DOCKED: ATOM     27  N   UNL d   1       7.364  14.097  28.758 -0.23 -0.04    -0.248 N 
DOCKED: ATOM     28  N   UNL d   1       7.985  13.609  31.532 -0.17 -0.10    -0.248 N 
DOCKED: ATOM     29 FE   UNL d   1       8.064  12.516  29.799 -0.08 +0.00    +0.000 Fe
DOCKED: ENDROOT
DOCKED: BRANCH   6  30
DOCKED: ATOM     30  C   UNL d   1       9.506   9.042  33.872 -0.37 +0.03    +0.052 C 
DOCKED: BRANCH  30  31
DOCKED: ATOM     31  C   UNL d   1      10.976   9.190  34.252 -0.21 +0.10    +0.115 C 
DOCKED: BRANCH  31  32
DOCKED: ATOM     32  C   UNL d   1      11.112   9.500  35.717 -0.18 +0.17    +0.139 C 
DOCKED: ATOM     33  O   UNL d   1      12.123   9.186  36.329 -0.01 -0.97    -0.650 OA
DOCKED: BRANCH  32  34
DOCKED: ATOM     34  O   UNL d   1      10.118  10.127  36.369 -0.08 -0.71    -0.776 OA
DOCKED: ATOM     35  H   UNL d   1      10.311  10.951  36.838 +0.04 +0.17    +0.167 HD
DOCKED: ENDBRANCH  32  34
DOCKED: ENDBRANCH  31  32
DOCKED: ENDBRANCH  30  31
DOCKED: ENDBRANCH   6  30
DOCKED: BRANCH  22  36
DOCKED: ATOM     36  C   UNL d   1       8.993  14.363  35.035 -0.14 +0.04    +0.052 C 
DOCKED: BRANCH  36  37
DOCKED: ATOM     37  C   UNL d   1      10.444  14.823  35.042 -0.17 +0.08    +0.115 C 
DOCKED: BRANCH  37  38
DOCKED: ATOM     38  C   UNL d   1      11.381  13.649  35.072 -0.19 +0.17    +0.139 C 
DOCKED: ATOM     39  O   UNL d   1      12.312  13.572  34.285 -0.20 -0.95    -0.650 OA
DOCKED: BRANCH  38  40
DOCKED: ATOM     40  O   UNL d   1      11.195  12.665  35.971 -0.32 -1.25    -0.776 OA
DOCKED: ATOM     41  H   UNL d   1      10.744  11.855  35.695 +0.04 +0.25    +0.167 HD
DOCKED: ENDBRANCH  38  40
DOCKED: ENDBRANCH  37  38
DOCKED: ENDBRANCH  36  37
DOCKED: ENDBRANCH  22  36
DOCKED: BRANCH  12  42
DOCKED: ATOM     42  C   UNL d   1       8.173  10.973  24.354 -0.43 +0.00    +0.004 C 
DOCKED: ATOM     43  C   UNL d   1       7.898  12.129  23.735 -0.46 +0.00    +0.012 C 
DOCKED: ENDBRANCH  12  42
DOCKED: BRANCH  17  44
DOCKED: ATOM     44  C   UNL d   1       5.730  17.390  28.422 -0.43 +0.00    +0.004 C 
DOCKED: ATOM     45  C   UNL d   1       6.275  18.316  29.218 -0.32 +0.00    +0.012 C 
DOCKED: ENDBRANCH  17  44
DOCKED: TORSDOF 10
DOCKED: TER
DOCKED: ENDMDL
________________________________________________________________________________


	BEGINNING GENETIC ALGORITHM DOCKING 66 of 100
Run: 66 Seed: 522065457 1539921822 [ Run 66 of 100 GA/GALS ]
Beginning LAMARCKIAN GENETIC ALGORITHM (LGA), with a maximum of 25000000 energy evaluations.

Final-Value: -17.892


	FINAL GENETIC ALGORITHM DOCKED STATE
	_______________________________________________


Detailed state:  trans 8.204 13.090 29.273 quatxyzw -0.609561 -0.017743 0.756977 0.234747 center -0.174 -0.001 -0.047 ntor 10 149.4838 -139.8269 65.2931 -132.4970 88.1395 8.1097 63.7832 61.6175 -72.7189 20.9399
State:	  8.204  13.090  29.273  -0.627 -0.018  0.779 152.847    149.48 -139.83   65.29 -132.50   88.14    8.11   63.78   61.62  -72.72   20.94

DOCKED: MODEL       66
DOCKED: USER    Run = 66
DOCKED: USER    DPF = D:/Protein_go_brrr/autodock/final/1A3N/heme_Fe/dock.dpf
DOCKED: USER  
DOCKED: USER    Estimated Free Energy of Binding    =  -14.77 kcal/mol  [=(1)+(2)+(3)-(4)]
DOCKED: USER    Estimated Inhibition Constant, Ki   =   14.89 pM (picomolar)  [Temperature = 298.15 K]
DOCKED: USER    
DOCKED: USER    (1) Final Intermolecular Energy     =  -17.75 kcal/mol
DOCKED: USER        vdW + Hbond + desolv Energy     =  -14.24 kcal/mol
DOCKED: USER        Electrostatic Energy            =   -3.51 kcal/mol
DOCKED: USER    (2) Final Total Internal Energy     =   -0.14 kcal/mol
DOCKED: USER    (3) Torsional Free Energy           =   +2.98 kcal/mol
DOCKED: USER    (4) Unbound System's Energy  [=(2)] =   -0.14 kcal/mol
DOCKED: USER    
DOCKED: USER    
DOCKED: USER    NEWDPF move heme_Fe_opt.pdbqt
DOCKED: USER    NEWDPF about -0.174000 -0.001000 -0.047000
DOCKED: USER    NEWDPF tran0 8.204381 13.089786 29.272533
DOCKED: USER    NEWDPF quaternion0 -0.609561 -0.017743 0.756977 0.234747
DOCKED: USER    NEWDPF axisangle0 -0.627084 -0.018253 0.778738 152.846594
DOCKED: USER    NEWDPF quat0 -0.627084 -0.018253 0.778738 152.846594
DOCKED: USER    NEWDPF dihe0 149.48 -139.83 65.29 -132.50 88.14 8.11 63.78 61.62 -72.72 20.94 
DOCKED: USER  keepresnum = 1 
DOCKED: USER  
DOCKED: REMARK  10 active torsions:
DOCKED: REMARK  status: ('A' for Active; 'I' for Inactive)
DOCKED: REMARK    1  A    between atoms: C_6  and  C_10 
DOCKED: REMARK    2  A    between atoms: C_10  and  C_11 
DOCKED: REMARK    3  A    between atoms: C_11  and  C_12 
DOCKED: REMARK    4  A    between atoms: C_12  and  O_14 
DOCKED: REMARK    5  A    between atoms: C_17  and  C_20 
DOCKED: REMARK    6  A    between atoms: C_24  and  C_27 
DOCKED: REMARK    7  A    between atoms: C_31  and  C_34 
DOCKED: REMARK    8  A    between atoms: C_34  and  C_35 
DOCKED: REMARK    9  A    between atoms: C_35  and  C_36 
DOCKED: REMARK   10  A    between atoms: C_36  and  O_38 
DOCKED: USER                              x       y       z     vdW  Elec       q    Type
DOCKED: USER                           _______ _______ _______ _____ _____    ______ ____
DOCKED: ROOT
DOCKED: ATOM      1  C   UNL d   1       7.986  13.637  31.238 -0.30 +0.02    +0.064 C 
DOCKED: ATOM      2  C   UNL d   1       6.374  15.435  26.926 -0.44 +0.01    +0.064 A 
DOCKED: ATOM      3  C   UNL d   1       7.589  11.292  24.823 -0.35 +0.00    +0.064 C 
DOCKED: ATOM      4  C   UNL d   1       9.252   9.571  28.965 -0.46 +0.01    +0.064 C 
DOCKED: ATOM      5  C   UNL d   1       7.497  14.558  30.203 -0.31 +0.02    +0.066 A 
DOCKED: ATOM      6  C   UNL d   1       7.157  15.883  30.421 -0.32 -0.01    -0.021 A 
DOCKED: ATOM      7  C   UNL d   1       6.705  16.381  29.224 -0.36 -0.00    -0.025 A 
DOCKED: ATOM      8  C   UNL d   1       6.788  15.339  28.320 -0.40 +0.01    +0.066 A 
DOCKED: ATOM      9  C   UNL d   1       6.243  17.782  28.968 -0.34 +0.01    +0.051 C 
DOCKED: ATOM     10  C   UNL d   1       6.497  14.464  26.020 -0.38 +0.01    +0.066 A 
DOCKED: ATOM     11  C   UNL d   1       5.987  14.546  24.722 -0.42 -0.00    -0.021 A 
DOCKED: ATOM     12  C   UNL d   1       6.309  13.356  24.099 -0.39 +0.00    +0.000 A 
DOCKED: ATOM     13  C   UNL d   1       6.999  12.599  25.062 -0.34 +0.00    +0.070 A 
DOCKED: ATOM     14  C   UNL d   1       5.172  15.675  24.124 -0.58 +0.00    +0.052 C 
DOCKED: ATOM     15  C   UNL d   1       8.209  10.537  25.760 -0.35 +0.00    +0.066 A 
DOCKED: ATOM     16  C   UNL d   1       8.847   9.338  25.469 -0.43 -0.00    -0.021 A 
DOCKED: ATOM     17  C   UNL d   1       9.324   8.838  26.663 -0.42 +0.00    +0.000 A 
DOCKED: ATOM     18  C   UNL d   1       8.962   9.744  27.657 -0.38 +0.01    +0.070 A 
DOCKED: ATOM     19  C   UNL d   1       8.983   8.673  24.125 -0.62 +0.00    +0.052 C 
DOCKED: ATOM     20  C   UNL d   1       8.940  10.531  30.031 -0.36 +0.02    +0.066 A 
DOCKED: ATOM     21  C   UNL d   1       9.053  10.280  31.406 -0.37 -0.01    -0.025 A 
DOCKED: ATOM     22  C   UNL d   1       8.700  11.457  32.034 -0.30 -0.01    -0.021 A 
DOCKED: ATOM     23  C   UNL d   1       8.381  12.372  31.024 -0.14 +0.02    +0.066 A 
DOCKED: ATOM     24  C   UNL d   1       9.466   9.004  32.101 -0.46 +0.02    +0.051 C 
DOCKED: ATOM     25  N   UNL d   1       7.279  14.234  28.917 -0.23 -0.05    -0.248 N 
DOCKED: ATOM     26  N   UNL d   1       7.106  13.270  26.235 -0.23 -0.02    -0.248 N 
DOCKED: ATOM     27  N   UNL d   1       8.314  10.810  27.098 -0.23 -0.02    -0.248 N 
DOCKED: ATOM     28  N   UNL d   1       8.487  11.788  29.805 -0.21 -0.06    -0.248 N 
DOCKED: ATOM     29 FE   UNL d   1       7.797  12.527  28.021 -0.08 +0.00    +0.000 Fe
DOCKED: ENDROOT
DOCKED: BRANCH   6  30
DOCKED: ATOM     30  C   UNL d   1       7.273  16.646  31.696 -0.28 +0.02    +0.052 C 
DOCKED: BRANCH  30  31
DOCKED: ATOM     31  C   UNL d   1       8.194  15.925  32.675 -0.20 +0.06    +0.115 C 
DOCKED: BRANCH  31  32
DOCKED: ATOM     32  C   UNL d   1       7.430  15.498  33.898 -0.15 +0.16    +0.139 C 
DOCKED: ATOM     33  O   UNL d   1       6.857  14.419  33.929 -0.04 -0.93    -0.650 OA
DOCKED: BRANCH  32  34
DOCKED: ATOM     34  O   UNL d   1       7.371  16.304  34.971 -0.53 -1.15    -0.776 OA
DOCKED: ATOM     35  H   UNL d   1       8.114  16.894  35.157 +0.02 +0.14    +0.167 HD
DOCKED: ENDBRANCH  32  34
DOCKED: ENDBRANCH  31  32
DOCKED: ENDBRANCH  30  31
DOCKED: ENDBRANCH   6  30
DOCKED: BRANCH  22  36
DOCKED: ATOM     36  C   UNL d   1       8.626  11.671  33.523 -0.27 +0.03    +0.052 C 
DOCKED: BRANCH  36  37
DOCKED: ATOM     37  C   UNL d   1       9.622  12.743  33.937 -0.21 +0.09    +0.115 C 
DOCKED: BRANCH  37  38
DOCKED: ATOM     38  C   UNL d   1      10.635  12.194  34.902 -0.08 +0.18    +0.139 C 
DOCKED: ATOM     39  O   UNL d   1      10.683  10.997  35.144 -0.27 -0.91    -0.650 OA
DOCKED: BRANCH  38  40
DOCKED: ATOM     40  O   UNL d   1      11.499  13.024  35.513 -0.34 -1.37    -0.776 OA
DOCKED: ATOM     41  H   UNL d   1      11.185  13.884  35.823 +0.04 +0.17    +0.167 HD
DOCKED: ENDBRANCH  38  40
DOCKED: ENDBRANCH  37  38
DOCKED: ENDBRANCH  36  37
DOCKED: ENDBRANCH  22  36
DOCKED: BRANCH  12  42
DOCKED: ATOM     42  C   UNL d   1       5.949  13.001  22.692 -0.49 +0.00    +0.004 C 
DOCKED: ATOM     43  C   UNL d   1       6.894  12.860  21.753 -0.53 +0.00    +0.012 C 
DOCKED: ENDBRANCH  12  42
DOCKED: BRANCH  17  44
DOCKED: ATOM     44  C   UNL d   1      10.095   7.586  26.838 -0.05 +0.00    +0.004 C 
DOCKED: ATOM     45  C   UNL d   1       9.480   6.399  26.842 -0.64 +0.00    +0.012 C 
DOCKED: ENDBRANCH  17  44
DOCKED: TORSDOF 10
DOCKED: TER
DOCKED: ENDMDL
________________________________________________________________________________


	BEGINNING GENETIC ALGORITHM DOCKING 67 of 100
Run: 67 Seed: 6398411 25617539 [ Run 67 of 100 GA/GALS ]
Beginning LAMARCKIAN GENETIC ALGORITHM (LGA), with a maximum of 25000000 energy evaluations.

Final-Value: -16.298


	FINAL GENETIC ALGORITHM DOCKED STATE
	_______________________________________________


Detailed state:  trans 23.914 7.909 -6.048 quatxyzw -0.649927 0.343183 -0.668878 0.111455 center -0.174 -0.001 -0.047 ntor 10 -38.1264 146.2199 66.4225 84.9611 -140.5539 47.0600 25.1723 -2.7333 -41.3565 33.4491
State:	 23.914   7.909  -6.048  -0.654  0.345 -0.673 167.202    -38.13  146.22   66.42   84.96 -140.55   47.06   25.17   -2.73  -41.36   33.45

DOCKED: MODEL       67
DOCKED: USER    Run = 67
DOCKED: USER    DPF = D:/Protein_go_brrr/autodock/final/1A3N/heme_Fe/dock.dpf
DOCKED: USER  
DOCKED: USER    Estimated Free Energy of Binding    =  -11.56 kcal/mol  [=(1)+(2)+(3)-(4)]
DOCKED: USER    Estimated Inhibition Constant, Ki   =    3.36 nM (nanomolar)  [Temperature = 298.15 K]
DOCKED: USER    
DOCKED: USER    (1) Final Intermolecular Energy     =  -14.54 kcal/mol
DOCKED: USER        vdW + Hbond + desolv Energy     =  -12.60 kcal/mol
DOCKED: USER        Electrostatic Energy            =   -1.94 kcal/mol
DOCKED: USER    (2) Final Total Internal Energy     =   -1.76 kcal/mol
DOCKED: USER    (3) Torsional Free Energy           =   +2.98 kcal/mol
DOCKED: USER    (4) Unbound System's Energy  [=(2)] =   -1.76 kcal/mol
DOCKED: USER    
DOCKED: USER    
DOCKED: USER    NEWDPF move heme_Fe_opt.pdbqt
DOCKED: USER    NEWDPF about -0.174000 -0.001000 -0.047000
DOCKED: USER    NEWDPF tran0 23.913577 7.909445 -6.048152
DOCKED: USER    NEWDPF quaternion0 -0.649927 0.343183 -0.668878 0.111455
DOCKED: USER    NEWDPF axisangle0 -0.654002 0.345334 -0.673072 167.201579
DOCKED: USER    NEWDPF quat0 -0.654002 0.345334 -0.673072 167.201579
DOCKED: USER    NEWDPF dihe0 -38.13 146.22 66.42 84.96 -140.55 47.06 25.17 -2.73 -41.36 33.45 
DOCKED: USER  keepresnum = 1 
DOCKED: USER  
DOCKED: REMARK  10 active torsions:
DOCKED: REMARK  status: ('A' for Active; 'I' for Inactive)
DOCKED: REMARK    1  A    between atoms: C_6  and  C_10 
DOCKED: REMARK    2  A    between atoms: C_10  and  C_11 
DOCKED: REMARK    3  A    between atoms: C_11  and  C_12 
DOCKED: REMARK    4  A    between atoms: C_12  and  O_14 
DOCKED: REMARK    5  A    between atoms: C_17  and  C_20 
DOCKED: REMARK    6  A    between atoms: C_24  and  C_27 
DOCKED: REMARK    7  A    between atoms: C_31  and  C_34 
DOCKED: REMARK    8  A    between atoms: C_34  and  C_35 
DOCKED: REMARK    9  A    between atoms: C_35  and  C_36 
DOCKED: REMARK   10  A    between atoms: C_36  and  O_38 
DOCKED: USER                              x       y       z     vdW  Elec       q    Type
DOCKED: USER                           _______ _______ _______ _____ _____    ______ ____
DOCKED: ROOT
DOCKED: ATOM      1  C   UNL d   1      24.629   8.220  -7.946 -0.31 +0.05    +0.064 C 
DOCKED: ATOM      2  C   UNL d   1      25.978   9.712  -3.431 -0.43 +0.01    +0.064 A 
DOCKED: ATOM      3  C   UNL d   1      23.145   6.325  -1.541 -0.38 +0.00    +0.064 C 
DOCKED: ATOM      4  C   UNL d   1      21.745   4.935  -5.899 -0.39 +0.01    +0.064 C 
DOCKED: ATOM      5  C   UNL d   1      25.207   9.009  -6.849 -0.31 +0.03    +0.066 A 
DOCKED: ATOM      6  C   UNL d   1      25.990  10.139  -7.016 -0.30 -0.01    -0.021 A 
DOCKED: ATOM      7  C   UNL d   1      26.368  10.550  -5.761 -0.33 -0.01    -0.025 A 
DOCKED: ATOM      8  C   UNL d   1      25.799   9.655  -4.877 -0.39 +0.01    +0.066 A 
DOCKED: ATOM      9  C   UNL d   1      27.210  11.747  -5.441 -0.37 +0.01    +0.051 C 
DOCKED: ATOM     10  C   UNL d   1      25.395   8.895  -2.552 -0.40 +0.01    +0.066 A 
DOCKED: ATOM     11  C   UNL d   1      25.675   8.902  -1.184 -0.41 -0.00    -0.021 A 
DOCKED: ATOM     12  C   UNL d   1      24.883   7.923  -0.618 -0.39 +0.00    +0.000 A 
DOCKED: ATOM     13  C   UNL d   1      24.159   7.358  -1.683 -0.34 +0.00    +0.070 A 
DOCKED: ATOM     14  C   UNL d   1      26.698   9.753  -0.460 -0.55 +0.00    +0.052 C 
DOCKED: ATOM     15  C   UNL d   1      22.483   5.742  -2.568 -0.34 +0.00    +0.066 A 
DOCKED: ATOM     16  C   UNL d   1      21.451   4.831  -2.385 -0.40 -0.00    -0.021 A 
DOCKED: ATOM     17  C   UNL d   1      21.048   4.426  -3.641 -0.44 +0.00    +0.000 A 
DOCKED: ATOM     18  C   UNL d   1      21.848   5.098  -4.562 -0.37 +0.01    +0.070 A 
DOCKED: ATOM     19  C   UNL d   1      20.880   4.339  -1.083 -0.44 +0.00    +0.052 C 
DOCKED: ATOM     20  C   UNL d   1      22.528   5.670  -6.900 -0.23 +0.02    +0.066 A 
DOCKED: ATOM     21  C   UNL d   1      22.576   5.372  -8.269 -0.27 -0.01    -0.025 A 
DOCKED: ATOM     22  C   UNL d   1      23.393   6.328  -8.835 -0.23 -0.01    -0.021 A 
DOCKED: ATOM     23  C   UNL d   1      23.814   7.164  -7.794 -0.24 +0.03    +0.066 A 
DOCKED: ATOM     24  C   UNL d   1      21.895   4.247  -9.014 -0.33 +0.02    +0.051 C 
DOCKED: ATOM     25  N   UNL d   1      25.086   8.724  -5.541 -0.23 -0.06    -0.248 N 
DOCKED: ATOM     26  N   UNL d   1      24.477   7.944  -2.863 -0.23 -0.02    -0.248 N 
DOCKED: ATOM     27  N   UNL d   1      22.701   5.940  -3.905 -0.24 -0.03    -0.248 N 
DOCKED: ATOM     28  N   UNL d   1      23.319   6.730  -6.609 -0.04 -0.08    -0.248 N 
DOCKED: ATOM     29 FE   UNL d   1      23.897   7.336  -4.737 -0.08 +0.00    +0.000 Fe
DOCKED: ENDROOT
DOCKED: BRANCH   6  30
DOCKED: ATOM     30  C   UNL d   1      26.346  10.809  -8.299 -0.13 +0.03    +0.052 C 
DOCKED: BRANCH  30  31
DOCKED: ATOM     31  C   UNL d   1      25.109  11.006  -9.167 -0.18 +0.07    +0.115 C 
DOCKED: BRANCH  31  32
DOCKED: ATOM     32  C   UNL d   1      25.492  11.088 -10.618 -0.12 +0.11    +0.139 C 
DOCKED: ATOM     33  O   UNL d   1      24.935  11.879 -11.366 +0.01 -0.31    -0.650 OA
DOCKED: BRANCH  32  34
DOCKED: ATOM     34  O   UNL d   1      26.454  10.288 -11.109 -0.37 -1.19    -0.776 OA
DOCKED: ATOM     35  H   UNL d   1      26.350   9.919 -11.997 +0.00 +0.31    +0.167 HD
DOCKED: ENDBRANCH  32  34
DOCKED: ENDBRANCH  31  32
DOCKED: ENDBRANCH  30  31
DOCKED: ENDBRANCH   6  30
DOCKED: BRANCH  22  36
DOCKED: ATOM     36  C   UNL d   1      23.784   6.403 -10.287 -0.18 +0.05    +0.052 C 
DOCKED: BRANCH  36  37
DOCKED: ATOM     37  C   UNL d   1      23.556   7.814 -10.809 -0.11 +0.11    +0.115 C 
DOCKED: BRANCH  37  38
DOCKED: ATOM     38  C   UNL d   1      24.018   7.944 -12.232 -0.03 +0.15    +0.139 C 
DOCKED: ATOM     39  O   UNL d   1      23.712   7.107 -13.068 +0.01 -0.47    -0.650 OA
DOCKED: BRANCH  38  40
DOCKED: ATOM     40  O   UNL d   1      24.782   8.990 -12.598 -0.24 -0.96    -0.776 OA
DOCKED: ATOM     41  H   UNL d   1      24.639   9.847 -12.173 +0.01 +0.16    +0.167 HD
DOCKED: ENDBRANCH  38  40
DOCKED: ENDBRANCH  37  38
DOCKED: ENDBRANCH  36  37
DOCKED: ENDBRANCH  22  36
DOCKED: BRANCH  12  42
DOCKED: ATOM     42  C   UNL d   1      24.863   7.571   0.835 -0.43 +0.00    +0.004 C 
DOCKED: ATOM     43  C   UNL d   1      23.771   7.783   1.581 -0.45 +0.00    +0.012 C 
DOCKED: ENDBRANCH  12  42
DOCKED: BRANCH  17  44
DOCKED: ATOM     44  C   UNL d   1      19.954   3.474  -3.941 -0.48 +0.00    +0.004 C 
DOCKED: ATOM     45  C   UNL d   1      19.108   3.699  -4.951 -0.53 +0.00    +0.012 C 
DOCKED: ENDBRANCH  17  44
DOCKED: TORSDOF 10
DOCKED: TER
DOCKED: ENDMDL
________________________________________________________________________________


	BEGINNING GENETIC ALGORITHM DOCKING 68 of 100
Run: 68 Seed: 1280968475 1957346412 [ Run 68 of 100 GA/GALS ]
Beginning LAMARCKIAN GENETIC ALGORITHM (LGA), with a maximum of 25000000 energy evaluations.

Final-Value: -17.978


	FINAL GENETIC ALGORITHM DOCKED STATE
	_______________________________________________


Detailed state:  trans 8.393 12.628 29.289 quatxyzw -0.591812 -0.031596 0.783247 0.187840 center -0.174 -0.001 -0.047 ntor 10 123.9670 82.7853 69.3677 -140.6707 86.4561 -112.5981 -24.1423 72.6684 -162.8104 175.6074
State:	  8.393  12.628  29.289  -0.603 -0.032  0.797 158.346    123.97   82.79   69.37 -140.67   86.46 -112.60  -24.14   72.67 -162.81  175.61

DOCKED: MODEL       68
DOCKED: USER    Run = 68
DOCKED: USER    DPF = D:/Protein_go_brrr/autodock/final/1A3N/heme_Fe/dock.dpf
DOCKED: USER  
DOCKED: USER    Estimated Free Energy of Binding    =  -12.88 kcal/mol  [=(1)+(2)+(3)-(4)]
DOCKED: USER    Estimated Inhibition Constant, Ki   =  359.47 pM (picomolar)  [Temperature = 298.15 K]
DOCKED: USER    
DOCKED: USER    (1) Final Intermolecular Energy     =  -15.87 kcal/mol
DOCKED: USER        vdW + Hbond + desolv Energy     =  -13.79 kcal/mol
DOCKED: USER        Electrostatic Energy            =   -2.07 kcal/mol
DOCKED: USER    (2) Final Total Internal Energy     =   -2.11 kcal/mol
DOCKED: USER    (3) Torsional Free Energy           =   +2.98 kcal/mol
DOCKED: USER    (4) Unbound System's Energy  [=(2)] =   -2.11 kcal/mol
DOCKED: USER    
DOCKED: USER    
DOCKED: USER    NEWDPF move heme_Fe_opt.pdbqt
DOCKED: USER    NEWDPF about -0.174000 -0.001000 -0.047000
DOCKED: USER    NEWDPF tran0 8.392790 12.628403 29.288977
DOCKED: USER    NEWDPF quaternion0 -0.591812 -0.031596 0.783247 0.187840
DOCKED: USER    NEWDPF axisangle0 -0.602537 -0.032168 0.797442 158.346435
DOCKED: USER    NEWDPF quat0 -0.602537 -0.032168 0.797442 158.346435
DOCKED: USER    NEWDPF dihe0 123.97 82.79 69.37 -140.67 86.46 -112.60 -24.14 72.67 -162.81 175.61 
DOCKED: USER  keepresnum = 1 
DOCKED: USER  
DOCKED: REMARK  10 active torsions:
DOCKED: REMARK  status: ('A' for Active; 'I' for Inactive)
DOCKED: REMARK    1  A    between atoms: C_6  and  C_10 
DOCKED: REMARK    2  A    between atoms: C_10  and  C_11 
DOCKED: REMARK    3  A    between atoms: C_11  and  C_12 
DOCKED: REMARK    4  A    between atoms: C_12  and  O_14 
DOCKED: REMARK    5  A    between atoms: C_17  and  C_20 
DOCKED: REMARK    6  A    between atoms: C_24  and  C_27 
DOCKED: REMARK    7  A    between atoms: C_31  and  C_34 
DOCKED: REMARK    8  A    between atoms: C_34  and  C_35 
DOCKED: REMARK    9  A    between atoms: C_35  and  C_36 
DOCKED: REMARK   10  A    between atoms: C_36  and  O_38 
DOCKED: USER                              x       y       z     vdW  Elec       q    Type
DOCKED: USER                           _______ _______ _______ _____ _____    ______ ____
DOCKED: ROOT
DOCKED: ATOM      1  C   UNL d   1       8.340  13.047  31.297 -0.30 +0.02    +0.064 C 
DOCKED: ATOM      2  C   UNL d   1       6.579  15.246  27.236 -0.43 +0.01    +0.064 A 
DOCKED: ATOM      3  C   UNL d   1       7.370  11.193  24.782 -0.27 +0.00    +0.064 C 
DOCKED: ATOM      4  C   UNL d   1       9.176   9.081  28.676 -0.44 +0.01    +0.064 C 
DOCKED: ATOM      5  C   UNL d   1       7.848  14.069  30.362 -0.29 +0.02    +0.066 A 
DOCKED: ATOM      6  C   UNL d   1       7.614  15.394  30.691 -0.31 -0.01    -0.021 A 
DOCKED: ATOM      7  C   UNL d   1       7.121  16.003  29.563 -0.30 -0.01    -0.025 A 
DOCKED: ATOM      8  C   UNL d   1       7.074  15.025  28.589 -0.38 +0.01    +0.066 A 
DOCKED: ATOM      9  C   UNL d   1       6.739  17.446  29.434 -0.09 +0.01    +0.051 C 
DOCKED: ATOM     10  C   UNL d   1       6.576  14.335  26.261 -0.37 +0.01    +0.066 A 
DOCKED: ATOM     11  C   UNL d   1       5.990  14.542  25.009 -0.40 -0.00    -0.021 A 
DOCKED: ATOM     12  C   UNL d   1       6.190  13.381  24.289 -0.38 +0.00    +0.000 A 
DOCKED: ATOM     13  C   UNL d   1       6.887  12.515  25.149 -0.34 +0.00    +0.070 A 
DOCKED: ATOM     14  C   UNL d   1       5.216  15.759  24.546 -0.56 +0.00    +0.052 C 
DOCKED: ATOM     15  C   UNL d   1       7.997  10.336  25.623 -0.34 +0.01    +0.066 A 
DOCKED: ATOM     16  C   UNL d   1       8.531   9.123  25.209 -0.43 -0.00    -0.021 A 
DOCKED: ATOM     17  C   UNL d   1       9.050   8.510  26.331 -0.43 +0.00    +0.000 A 
DOCKED: ATOM     18  C   UNL d   1       8.815   9.364  27.406 -0.38 +0.01    +0.070 A 
DOCKED: ATOM     19  C   UNL d   1       8.534   8.548  23.818 -0.63 +0.00    +0.052 C 
DOCKED: ATOM     20  C   UNL d   1       9.001   9.981  29.822 -0.39 +0.02    +0.066 A 
DOCKED: ATOM     21  C   UNL d   1       9.184   9.627  31.166 -0.40 -0.01    -0.025 A 
DOCKED: ATOM     22  C   UNL d   1       8.953  10.775  31.895 -0.34 -0.01    -0.021 A 
DOCKED: ATOM     23  C   UNL d   1       8.633  11.778  30.972 -0.23 +0.02    +0.066 A 
DOCKED: ATOM     24  C   UNL d   1       9.554   8.280  31.745 -0.49 +0.01    +0.051 C 
DOCKED: ATOM     25  N   UNL d   1       7.526  13.852  29.075 -0.21 -0.05    -0.248 N 
DOCKED: ATOM     26  N   UNL d   1       7.115  13.093  26.354 -0.23 -0.02    -0.248 N 
DOCKED: ATOM     27  N   UNL d   1       8.206  10.506  26.965 -0.23 -0.03    -0.248 N 
DOCKED: ATOM     28  N   UNL d   1       8.620  11.277  29.713 -0.23 -0.06    -0.248 N 
DOCKED: ATOM     29 FE   UNL d   1       7.868  12.183  28.034 -0.08 +0.00    +0.000 Fe
DOCKED: ENDROOT
DOCKED: BRANCH   6  30
DOCKED: ATOM     30  C   UNL d   1       7.865  16.056  32.002 -0.26 +0.02    +0.052 C 
DOCKED: BRANCH  30  31
DOCKED: ATOM     31  C   UNL d   1       6.827  15.624  33.032 -0.11 +0.11    +0.115 C 
DOCKED: BRANCH  31  32
DOCKED: ATOM     32  C   UNL d   1       7.370  15.785  34.425 +0.02 +0.19    +0.139 C 
DOCKED: ATOM     33  O   UNL d   1       7.276  16.855  35.011 -0.60 -0.85    -0.650 OA
DOCKED: BRANCH  32  34
DOCKED: ATOM     34  O   UNL d   1       7.965  14.750  35.042 -0.02 -0.88    -0.776 OA
DOCKED: ATOM     35  H   UNL d   1       7.478  13.920  35.141 +0.04 +0.22    +0.167 HD
DOCKED: ENDBRANCH  32  34
DOCKED: ENDBRANCH  31  32
DOCKED: ENDBRANCH  30  31
DOCKED: ENDBRANCH   6  30
DOCKED: BRANCH  22  36
DOCKED: ATOM     36  C   UNL d   1       8.991  10.887  33.396 -0.31 +0.03    +0.052 C 
DOCKED: BRANCH  36  37
DOCKED: ATOM     37  C   UNL d   1       7.625  10.540  33.971 -0.36 +0.06    +0.115 C 
DOCKED: BRANCH  37  38
DOCKED: ATOM     38  C   UNL d   1       6.932  11.767  34.492 -0.27 +0.10    +0.139 C 
DOCKED: ATOM     39  O   UNL d   1       6.729  11.910  35.688 +0.01 -0.56    -0.650 OA
DOCKED: BRANCH  38  40
DOCKED: ATOM     40  O   UNL d   1       6.525  12.722  33.636 -0.06 -0.67    -0.776 OA
DOCKED: ATOM     41  H   UNL d   1       7.084  13.500  33.499 +0.07 +0.15    +0.167 HD
DOCKED: ENDBRANCH  38  40
DOCKED: ENDBRANCH  37  38
DOCKED: ENDBRANCH  36  37
DOCKED: ENDBRANCH  22  36
DOCKED: BRANCH  12  42
DOCKED: ATOM     42  C   UNL d   1       5.716  13.150  22.889 -0.49 +0.00    +0.004 C 
DOCKED: ATOM     43  C   UNL d   1       6.586  12.936  21.893 -0.52 +0.00    +0.012 C 
DOCKED: ENDBRANCH  12  42
DOCKED: BRANCH  17  44
DOCKED: ATOM     44  C   UNL d   1       9.743   7.203  26.368 -0.35 +0.00    +0.004 C 
DOCKED: ATOM     45  C   UNL d   1       9.053   6.065  26.500 -0.68 +0.00    +0.012 C 
DOCKED: ENDBRANCH  17  44
DOCKED: TORSDOF 10
DOCKED: TER
DOCKED: ENDMDL
________________________________________________________________________________


	BEGINNING GENETIC ALGORITHM DOCKING 69 of 100
Run: 69 Seed: 1629825198 2110488189 [ Run 69 of 100 GA/GALS ]
Beginning LAMARCKIAN GENETIC ALGORITHM (LGA), with a maximum of 25000000 energy evaluations.

Final-Value: -17.914


	FINAL GENETIC ALGORITHM DOCKED STATE
	_______________________________________________


Detailed state:  trans 2.492 -6.886 -3.992 quatxyzw 0.301688 0.696817 0.068778 0.647071 center -0.174 -0.001 -0.047 ntor 10 106.7507 111.8552 89.6559 -131.5390 123.3033 -163.2844 -50.1560 53.6340 -156.1112 -157.4222
State:	  2.492  -6.886  -3.992   0.396  0.914  0.090 99.358    106.75  111.86   89.66 -131.54  123.30 -163.28  -50.16   53.63 -156.11 -157.42

DOCKED: MODEL       69
DOCKED: USER    Run = 69
DOCKED: USER    DPF = D:/Protein_go_brrr/autodock/final/1A3N/heme_Fe/dock.dpf
DOCKED: USER  
DOCKED: USER    Estimated Free Energy of Binding    =  -13.34 kcal/mol  [=(1)+(2)+(3)-(4)]
DOCKED: USER    Estimated Inhibition Constant, Ki   =  165.75 pM (picomolar)  [Temperature = 298.15 K]
DOCKED: USER    
DOCKED: USER    (1) Final Intermolecular Energy     =  -16.33 kcal/mol
DOCKED: USER        vdW + Hbond + desolv Energy     =  -14.34 kcal/mol
DOCKED: USER        Electrostatic Energy            =   -1.99 kcal/mol
DOCKED: USER    (2) Final Total Internal Energy     =   -1.59 kcal/mol
DOCKED: USER    (3) Torsional Free Energy           =   +2.98 kcal/mol
DOCKED: USER    (4) Unbound System's Energy  [=(2)] =   -1.59 kcal/mol
DOCKED: USER    
DOCKED: USER    
DOCKED: USER    NEWDPF move heme_Fe_opt.pdbqt
DOCKED: USER    NEWDPF about -0.174000 -0.001000 -0.047000
DOCKED: USER    NEWDPF tran0 2.492404 -6.886495 -3.992091
DOCKED: USER    NEWDPF quaternion0 0.301688 0.696817 0.068778 0.647071
DOCKED: USER    NEWDPF axisangle0 0.395693 0.913942 0.090209 99.357772
DOCKED: USER    NEWDPF quat0 0.395693 0.913942 0.090209 99.357772
DOCKED: USER    NEWDPF dihe0 106.75 111.86 89.66 -131.54 123.30 -163.28 -50.16 53.63 -156.11 -157.42 
DOCKED: USER  keepresnum = 1 
DOCKED: USER  
DOCKED: REMARK  10 active torsions:
DOCKED: REMARK  status: ('A' for Active; 'I' for Inactive)
DOCKED: REMARK    1  A    between atoms: C_6  and  C_10 
DOCKED: REMARK    2  A    between atoms: C_10  and  C_11 
DOCKED: REMARK    3  A    between atoms: C_11  and  C_12 
DOCKED: REMARK    4  A    between atoms: C_12  and  O_14 
DOCKED: REMARK    5  A    between atoms: C_17  and  C_20 
DOCKED: REMARK    6  A    between atoms: C_24  and  C_27 
DOCKED: REMARK    7  A    between atoms: C_31  and  C_34 
DOCKED: REMARK    8  A    between atoms: C_34  and  C_35 
DOCKED: REMARK    9  A    between atoms: C_35  and  C_36 
DOCKED: REMARK   10  A    between atoms: C_36  and  O_38 
DOCKED: USER                              x       y       z     vdW  Elec       q    Type
DOCKED: USER                           _______ _______ _______ _____ _____    ______ ____
DOCKED: ROOT
DOCKED: ATOM      1  C   UNL d   1       1.966  -7.332  -5.925 -0.32 +0.02    +0.064 C 
DOCKED: ATOM      2  C   UNL d   1       0.510  -8.904  -1.471 -0.42 +0.00    +0.064 A 
DOCKED: ATOM      3  C   UNL d   1       2.708  -5.119   0.507 -0.41 +0.00    +0.064 C 
DOCKED: ATOM      4  C   UNL d   1       4.216  -3.637  -3.784 -0.48 +0.01    +0.064 C 
DOCKED: ATOM      5  C   UNL d   1       1.423  -8.171  -4.847 -0.33 +0.01    +0.066 A 
DOCKED: ATOM      6  C   UNL d   1       0.816  -9.402  -5.033 -0.32 -0.00    -0.021 A 
DOCKED: ATOM      7  C   UNL d   1       0.409  -9.836  -3.796 -0.35 -0.00    -0.025 A 
DOCKED: ATOM      8  C   UNL d   1       0.784  -8.852  -2.902 -0.37 +0.01    +0.066 A 
DOCKED: ATOM      9  C   UNL d   1      -0.282 -11.131  -3.498 -0.19 +0.00    +0.051 C 
DOCKED: ATOM     10  C   UNL d   1       0.911  -7.997  -0.579 -0.39 +0.00    +0.066 A 
DOCKED: ATOM     11  C   UNL d   1       0.536  -8.015   0.767 -0.43 +0.00    -0.021 A 
DOCKED: ATOM     12  C   UNL d   1       1.143  -6.924   1.356 -0.36 +0.00    +0.000 A 
DOCKED: ATOM     13  C   UNL d   1       1.857  -6.286   0.327 -0.35 +0.00    +0.070 A 
DOCKED: ATOM     14  C   UNL d   1      -0.411  -8.985   1.444 -0.56 -0.00    +0.052 C 
DOCKED: ATOM     15  C   UNL d   1       3.356  -4.471  -0.489 -0.37 +0.00    +0.066 A 
DOCKED: ATOM     16  C   UNL d   1       4.238  -3.422  -0.263 -0.47 -0.00    -0.021 A 
DOCKED: ATOM     17  C   UNL d   1       4.672  -2.990  -1.499 -0.48 +0.00    +0.000 A 
DOCKED: ATOM     18  C   UNL d   1       4.040  -3.786  -2.453 -0.38 +0.00    +0.070 A 
DOCKED: ATOM     19  C   UNL d   1       4.640  -2.829   1.061 -0.46 +0.00    +0.052 C 
DOCKED: ATOM     20  C   UNL d   1       3.617  -4.494  -4.813 -0.39 +0.01    +0.066 A 
DOCKED: ATOM     21  C   UNL d   1       3.628  -4.234  -6.191 -0.40 -0.00    -0.025 A 
DOCKED: ATOM     22  C   UNL d   1       2.992  -5.306  -6.783 -0.31 -0.01    -0.021 A 
DOCKED: ATOM     23  C   UNL d   1       2.615  -6.170  -5.749 -0.19 +0.02    +0.066 A 
DOCKED: ATOM     24  C   UNL d   1       4.200  -3.041  -6.921 -0.45 +0.00    +0.051 C 
DOCKED: ATOM     25  N   UNL d   1       1.409  -7.845  -3.543 -0.21 -0.02    -0.248 N 
DOCKED: ATOM     26  N   UNL d   1       1.709  -6.934  -0.854 -0.24 -0.00    -0.248 N 
DOCKED: ATOM     27  N   UNL d   1       3.265  -4.724  -1.831 -0.23 -0.01    -0.248 N 
DOCKED: ATOM     28  N   UNL d   1       2.959  -5.648  -4.546 -0.23 -0.05    -0.248 N 
DOCKED: ATOM     29 FE   UNL d   1       2.335  -6.290  -2.701 -0.08 -0.00    +0.000 Fe
DOCKED: ENDROOT
DOCKED: BRANCH   6  30
DOCKED: ATOM     30  C   UNL d   1       0.650 -10.141  -6.317 -0.25 +0.01    +0.052 C 
DOCKED: BRANCH  30  31
DOCKED: ATOM     31  C   UNL d   1      -0.302  -9.397  -7.248 -0.18 +0.05    +0.115 C 
DOCKED: BRANCH  31  32
DOCKED: ATOM     32  C   UNL d   1       0.310  -9.244  -8.612 -0.15 +0.07    +0.139 C 
DOCKED: ATOM     33  O   UNL d   1      -0.266  -9.669  -9.605 -0.00 -0.30    -0.650 OA
DOCKED: BRANCH  32  34
DOCKED: ATOM     34  O   UNL d   1       1.500  -8.636  -8.754 +0.05 -0.30    -0.776 OA
DOCKED: ATOM     35  H   UNL d   1       1.552  -7.676  -8.650 +0.05 +0.08    +0.167 HD
DOCKED: ENDBRANCH  32  34
DOCKED: ENDBRANCH  31  32
DOCKED: ENDBRANCH  30  31
DOCKED: ENDBRANCH   6  30
DOCKED: BRANCH  22  36
DOCKED: ATOM     36  C   UNL d   1       2.721  -5.464  -8.256 -0.28 +0.02    +0.052 C 
DOCKED: BRANCH  36  37
DOCKED: ATOM     37  C   UNL d   1       1.845  -4.319  -8.742 -0.30 +0.05    +0.115 C 
DOCKED: BRANCH  37  38
DOCKED: ATOM     38  C   UNL d   1       0.634  -4.837  -9.466 -0.18 +0.14    +0.139 C 
DOCKED: ATOM     39  O   UNL d   1      -0.027  -4.102 -10.185 -0.10 -0.72    -0.650 OA
DOCKED: BRANCH  38  40
DOCKED: ATOM     40  O   UNL d   1       0.266  -6.122  -9.322 -0.46 -1.23    -0.776 OA
DOCKED: ATOM     41  H   UNL d   1       0.828  -6.817  -9.693 +0.04 +0.15    +0.167 HD
DOCKED: ENDBRANCH  38  40
DOCKED: ENDBRANCH  37  38
DOCKED: ENDBRANCH  36  37
DOCKED: ENDBRANCH  22  36
DOCKED: BRANCH  12  42
DOCKED: ATOM     42  C   UNL d   1       1.009  -6.543   2.796 -0.52 +0.00    +0.004 C 
DOCKED: ATOM     43  C   UNL d   1       2.071  -6.139   3.504 -0.59 +0.00    +0.012 C 
DOCKED: ENDBRANCH  12  42
DOCKED: BRANCH  17  44
DOCKED: ATOM     44  C   UNL d   1       5.643  -1.902  -1.751 -0.62 +0.00    +0.004 C 
DOCKED: ATOM     45  C   UNL d   1       5.273  -0.620  -1.664 -0.68 +0.00    +0.012 C 
DOCKED: ENDBRANCH  17  44
DOCKED: TORSDOF 10
DOCKED: TER
DOCKED: ENDMDL
________________________________________________________________________________


	BEGINNING GENETIC ALGORITHM DOCKING 70 of 100
Run: 70 Seed: 294172112 512180477 [ Run 70 of 100 GA/GALS ]
Beginning LAMARCKIAN GENETIC ALGORITHM (LGA), with a maximum of 25000000 energy evaluations.

Final-Value: -17.693


	FINAL GENETIC ALGORITHM DOCKED STATE
	_______________________________________________


Detailed state:  trans 2.872 -6.566 -4.369 quatxyzw 0.268138 0.715768 0.094133 0.637900 center -0.174 -0.001 -0.047 ntor 10 178.1127 -21.0050 90.5180 -142.4766 84.0261 178.5837 -5.4943 56.8707 180.0000 149.8802
State:	  2.872  -6.566  -4.369   0.348  0.929  0.122 100.729    178.11  -21.00   90.52 -142.48   84.03  178.58   -5.49   56.87  180.00  149.88

DOCKED: MODEL       70
DOCKED: USER    Run = 70
DOCKED: USER    DPF = D:/Protein_go_brrr/autodock/final/1A3N/heme_Fe/dock.dpf
DOCKED: USER  
DOCKED: USER    Estimated Free Energy of Binding    =  -12.55 kcal/mol  [=(1)+(2)+(3)-(4)]
DOCKED: USER    Estimated Inhibition Constant, Ki   =  632.82 pM (picomolar)  [Temperature = 298.15 K]
DOCKED: USER    
DOCKED: USER    (1) Final Intermolecular Energy     =  -15.53 kcal/mol
DOCKED: USER        vdW + Hbond + desolv Energy     =  -14.22 kcal/mol
DOCKED: USER        Electrostatic Energy            =   -1.31 kcal/mol
DOCKED: USER    (2) Final Total Internal Energy     =   -2.16 kcal/mol
DOCKED: USER    (3) Torsional Free Energy           =   +2.98 kcal/mol
DOCKED: USER    (4) Unbound System's Energy  [=(2)] =   -2.16 kcal/mol
DOCKED: USER    
DOCKED: USER    
DOCKED: USER    NEWDPF move heme_Fe_opt.pdbqt
DOCKED: USER    NEWDPF about -0.174000 -0.001000 -0.047000
DOCKED: USER    NEWDPF tran0 2.871651 -6.566193 -4.369427
DOCKED: USER    NEWDPF quaternion0 0.268138 0.715768 0.094133 0.637900
DOCKED: USER    NEWDPF axisangle0 0.348178 0.929425 0.122232 100.729167
DOCKED: USER    NEWDPF quat0 0.348178 0.929425 0.122232 100.729167
DOCKED: USER    NEWDPF dihe0 178.11 -21.00 90.52 -142.48 84.03 178.58 -5.49 56.87 180.00 149.88 
DOCKED: USER  keepresnum = 1 
DOCKED: USER  
DOCKED: REMARK  10 active torsions:
DOCKED: REMARK  status: ('A' for Active; 'I' for Inactive)
DOCKED: REMARK    1  A    between atoms: C_6  and  C_10 
DOCKED: REMARK    2  A    between atoms: C_10  and  C_11 
DOCKED: REMARK    3  A    between atoms: C_11  and  C_12 
DOCKED: REMARK    4  A    between atoms: C_12  and  O_14 
DOCKED: REMARK    5  A    between atoms: C_17  and  C_20 
DOCKED: REMARK    6  A    between atoms: C_24  and  C_27 
DOCKED: REMARK    7  A    between atoms: C_31  and  C_34 
DOCKED: REMARK    8  A    between atoms: C_34  and  C_35 
DOCKED: REMARK    9  A    between atoms: C_35  and  C_36 
DOCKED: REMARK   10  A    between atoms: C_36  and  O_38 
DOCKED: USER                              x       y       z     vdW  Elec       q    Type
DOCKED: USER                           _______ _______ _______ _____ _____    ______ ____
DOCKED: ROOT
DOCKED: ATOM      1  C   UNL d   1       2.467  -6.884  -6.356 -0.32 +0.02    +0.064 C 
DOCKED: ATOM      2  C   UNL d   1       0.804  -8.802  -2.114 -0.39 +0.00    +0.064 A 
DOCKED: ATOM      3  C   UNL d   1       2.787  -5.120   0.247 -0.41 +0.00    +0.064 C 
DOCKED: ATOM      4  C   UNL d   1       4.496  -3.303  -3.835 -0.49 +0.01    +0.064 C 
DOCKED: ATOM      5  C   UNL d   1       1.886  -7.810  -5.373 -0.32 +0.01    +0.066 A 
DOCKED: ATOM      6  C   UNL d   1       1.323  -9.037  -5.679 -0.31 -0.00    -0.021 A 
DOCKED: ATOM      7  C   UNL d   1       0.858  -9.568  -4.501 -0.33 -0.00    -0.025 A 
DOCKED: ATOM      8  C   UNL d   1       1.156  -8.642  -3.520 -0.30 +0.01    +0.066 A 
DOCKED: ATOM      9  C   UNL d   1       0.186 -10.896  -4.335 -0.21 +0.00    +0.051 C 
DOCKED: ATOM     10  C   UNL d   1       1.130  -7.951  -1.139 -0.38 +0.00    +0.066 A 
DOCKED: ATOM     11  C   UNL d   1       0.680  -8.073   0.178 -0.43 -0.00    -0.021 A 
DOCKED: ATOM     12  C   UNL d   1       1.224  -7.014   0.875 -0.33 +0.00    +0.000 A 
DOCKED: ATOM     13  C   UNL d   1       1.979  -6.289  -0.063 -0.37 +0.00    +0.070 A 
DOCKED: ATOM     14  C   UNL d   1      -0.278  -9.110   0.729 -0.58 -0.00    +0.052 C 
DOCKED: ATOM     15  C   UNL d   1       3.473  -4.388  -0.662 -0.37 +0.00    +0.066 A 
DOCKED: ATOM     16  C   UNL d   1       4.313  -3.338  -0.312 -0.48 -0.00    -0.021 A 
DOCKED: ATOM     17  C   UNL d   1       4.805  -2.810  -1.488 -0.49 +0.00    +0.000 A 
DOCKED: ATOM     18  C   UNL d   1       4.248  -3.549  -2.530 -0.39 +0.01    +0.070 A 
DOCKED: ATOM     19  C   UNL d   1       4.624  -2.832   1.071 -0.47 +0.00    +0.052 C 
DOCKED: ATOM     20  C   UNL d   1       3.978  -4.097  -4.955 -0.41 +0.01    +0.066 A 
DOCKED: ATOM     21  C   UNL d   1       4.059  -3.739  -6.308 -0.44 -0.00    -0.025 A 
DOCKED: ATOM     22  C   UNL d   1       3.487  -4.780  -7.009 -0.35 -0.00    -0.021 A 
DOCKED: ATOM     23  C   UNL d   1       3.074  -5.724  -6.061 -0.29 +0.01    +0.066 A 
DOCKED: ATOM     24  C   UNL d   1       4.640  -2.485  -6.919 -0.32 -0.00    +0.051 C 
DOCKED: ATOM     25  N   UNL d   1       1.790  -7.578  -4.052 -0.21 -0.02    -0.248 N 
DOCKED: ATOM     26  N   UNL d   1       1.915  -6.855  -1.293 -0.24 -0.00    -0.248 N 
DOCKED: ATOM     27  N   UNL d   1       3.464  -4.547  -2.022 -0.23 -0.01    -0.248 N 
DOCKED: ATOM     28  N   UNL d   1       3.336  -5.281  -4.808 -0.24 -0.05    -0.248 N 
DOCKED: ATOM     29 FE   UNL d   1       2.626  -6.066  -3.051 -0.08 +0.00    +0.000 Fe
DOCKED: ENDROOT
DOCKED: BRANCH   6  30
DOCKED: ATOM     30  C   UNL d   1       1.248  -9.686  -7.019 -0.24 +0.01    +0.052 C 
DOCKED: BRANCH  30  31
DOCKED: ATOM     31  C   UNL d   1      -0.043  -9.302  -7.733 -0.18 +0.05    +0.115 C 
DOCKED: BRANCH  31  32
DOCKED: ATOM     32  C   UNL d   1      -0.052  -9.851  -9.133 -0.11 +0.06    +0.139 C 
DOCKED: ATOM     33  O   UNL d   1      -0.409 -11.000  -9.350 +0.02 -0.17    -0.650 OA
DOCKED: BRANCH  32  34
DOCKED: ATOM     34  O   UNL d   1       0.333  -9.078 -10.163 +0.03 -0.37    -0.776 OA
DOCKED: ATOM     35  H   UNL d   1       0.589  -8.161  -9.992 +0.03 +0.11    +0.167 HD
DOCKED: ENDBRANCH  32  34
DOCKED: ENDBRANCH  31  32
DOCKED: ENDBRANCH  30  31
DOCKED: ENDBRANCH   6  30
DOCKED: BRANCH  22  36
DOCKED: ATOM     36  C   UNL d   1       3.303  -4.839  -8.503 -0.29 +0.01    +0.052 C 
DOCKED: BRANCH  36  37
DOCKED: ATOM     37  C   UNL d   1       1.820  -4.793  -8.840 -0.26 +0.06    +0.115 C 
DOCKED: BRANCH  37  38
DOCKED: ATOM     38  C   UNL d   1       1.420  -5.979  -9.671 -0.18 +0.09    +0.139 C 
DOCKED: ATOM     39  O   UNL d   1       0.259  -6.135 -10.021 -0.60 -0.92    -0.650 OA
DOCKED: BRANCH  38  40
DOCKED: ATOM     40  O   UNL d   1       2.344  -6.886 -10.036 +0.05 -0.29    -0.776 OA
DOCKED: ATOM     41  H   UNL d   1       2.057  -7.775 -10.288 +0.03 +0.06    +0.167 HD
DOCKED: ENDBRANCH  38  40
DOCKED: ENDBRANCH  37  38
DOCKED: ENDBRANCH  36  37
DOCKED: ENDBRANCH  22  36
DOCKED: BRANCH  12  42
DOCKED: ATOM     42  C   UNL d   1       0.999  -6.740   2.329 -0.51 +0.00    +0.004 C 
DOCKED: ATOM     43  C   UNL d   1       2.006  -6.347   3.120 -0.54 +0.00    +0.012 C 
DOCKED: ENDBRANCH  12  42
DOCKED: BRANCH  17  44
DOCKED: ATOM     44  C   UNL d   1       5.760  -1.686  -1.607 -0.62 +0.00    +0.004 C 
DOCKED: ATOM     45  C   UNL d   1       5.326  -0.423  -1.669 -0.68 +0.00    +0.012 C 
DOCKED: ENDBRANCH  17  44
DOCKED: TORSDOF 10
DOCKED: TER
DOCKED: ENDMDL
________________________________________________________________________________


	BEGINNING GENETIC ALGORITHM DOCKING 71 of 100
Run: 71 Seed: 1263201406 1831589513 [ Run 71 of 100 GA/GALS ]
Beginning LAMARCKIAN GENETIC ALGORITHM (LGA), with a maximum of 25000000 energy evaluations.

Final-Value: -18.316


	FINAL GENETIC ALGORITHM DOCKED STATE
	_______________________________________________


Detailed state:  trans 8.170 12.952 29.711 quatxyzw -0.628814 -0.015095 0.744095 0.225139 center -0.174 -0.001 -0.047 ntor 10 -130.1832 99.1616 74.2003 -120.7214 -160.2139 -178.8822 30.5449 78.2283 -33.5579 170.4645
State:	  8.170  12.952  29.711  -0.645 -0.015  0.764 153.978   -130.18   99.16   74.20 -120.72 -160.21 -178.88   30.54   78.23  -33.56  170.46

DOCKED: MODEL       71
DOCKED: USER    Run = 71
DOCKED: USER    DPF = D:/Protein_go_brrr/autodock/final/1A3N/heme_Fe/dock.dpf
DOCKED: USER  
DOCKED: USER    Estimated Free Energy of Binding    =  -13.71 kcal/mol  [=(1)+(2)+(3)-(4)]
DOCKED: USER    Estimated Inhibition Constant, Ki   =   88.78 pM (picomolar)  [Temperature = 298.15 K]
DOCKED: USER    
DOCKED: USER    (1) Final Intermolecular Energy     =  -16.70 kcal/mol
DOCKED: USER        vdW + Hbond + desolv Energy     =  -14.08 kcal/mol
DOCKED: USER        Electrostatic Energy            =   -2.62 kcal/mol
DOCKED: USER    (2) Final Total Internal Energy     =   -1.62 kcal/mol
DOCKED: USER    (3) Torsional Free Energy           =   +2.98 kcal/mol
DOCKED: USER    (4) Unbound System's Energy  [=(2)] =   -1.62 kcal/mol
DOCKED: USER    
DOCKED: USER    
DOCKED: USER    NEWDPF move heme_Fe_opt.pdbqt
DOCKED: USER    NEWDPF about -0.174000 -0.001000 -0.047000
DOCKED: USER    NEWDPF tran0 8.170256 12.952382 29.711064
DOCKED: USER    NEWDPF quaternion0 -0.628814 -0.015095 0.744095 0.225139
DOCKED: USER    NEWDPF axisangle0 -0.645384 -0.015492 0.763701 153.977869
DOCKED: USER    NEWDPF quat0 -0.645384 -0.015492 0.763701 153.977869
DOCKED: USER    NEWDPF dihe0 -130.18 99.16 74.20 -120.72 -160.21 -178.88 30.54 78.23 -33.56 170.46 
DOCKED: USER  keepresnum = 1 
DOCKED: USER  
DOCKED: REMARK  10 active torsions:
DOCKED: REMARK  status: ('A' for Active; 'I' for Inactive)
DOCKED: REMARK    1  A    between atoms: C_6  and  C_10 
DOCKED: REMARK    2  A    between atoms: C_10  and  C_11 
DOCKED: REMARK    3  A    between atoms: C_11  and  C_12 
DOCKED: REMARK    4  A    between atoms: C_12  and  O_14 
DOCKED: REMARK    5  A    between atoms: C_17  and  C_20 
DOCKED: REMARK    6  A    between atoms: C_24  and  C_27 
DOCKED: REMARK    7  A    between atoms: C_31  and  C_34 
DOCKED: REMARK    8  A    between atoms: C_34  and  C_35 
DOCKED: REMARK    9  A    between atoms: C_35  and  C_36 
DOCKED: REMARK   10  A    between atoms: C_36  and  O_38 
DOCKED: USER                              x       y       z     vdW  Elec       q    Type
DOCKED: USER                           _______ _______ _______ _____ _____    ______ ____
DOCKED: ROOT
DOCKED: ATOM      1  C   UNL d   1       7.869  13.469  31.674 -0.27 +0.03    +0.064 C 
DOCKED: ATOM      2  C   UNL d   1       6.478  15.360  27.324 -0.44 +0.01    +0.064 A 
DOCKED: ATOM      3  C   UNL d   1       7.738  11.238  25.207 -0.38 +0.00    +0.064 C 
DOCKED: ATOM      4  C   UNL d   1       9.188   9.426  29.390 -0.45 +0.01    +0.064 C 
DOCKED: ATOM      5  C   UNL d   1       7.438  14.414  30.634 -0.28 +0.02    +0.066 A 
DOCKED: ATOM      6  C   UNL d   1       7.105  15.739  30.859 -0.32 -0.01    -0.021 A 
DOCKED: ATOM      7  C   UNL d   1       6.715  16.263  29.651 -0.37 -0.01    -0.025 A 
DOCKED: ATOM      8  C   UNL d   1       6.826  15.235  28.734 -0.39 +0.01    +0.066 A 
DOCKED: ATOM      9  C   UNL d   1       6.281  17.674  29.399 -0.37 +0.01    +0.051 C 
DOCKED: ATOM     10  C   UNL d   1       6.630  14.403  26.408 -0.37 +0.01    +0.066 A 
DOCKED: ATOM     11  C   UNL d   1       6.181  14.514  25.090 -0.41 -0.00    -0.021 A 
DOCKED: ATOM     12  C   UNL d   1       6.518  13.331  24.462 -0.39 +0.00    +0.000 A 
DOCKED: ATOM     13  C   UNL d   1       7.153  12.548  25.442 -0.35 +0.00    +0.070 A 
DOCKED: ATOM     14  C   UNL d   1       5.408  15.663  24.476 -0.55 +0.00    +0.052 C 
DOCKED: ATOM     15  C   UNL d   1       8.305  10.459  26.159 -0.35 +0.01    +0.066 A 
DOCKED: ATOM     16  C   UNL d   1       8.942   9.257  25.876 -0.43 -0.00    -0.021 A 
DOCKED: ATOM     17  C   UNL d   1       9.358   8.731  27.081 -0.42 +0.00    +0.000 A 
DOCKED: ATOM     18  C   UNL d   1       8.961   9.624  28.074 -0.39 +0.01    +0.070 A 
DOCKED: ATOM     19  C   UNL d   1       9.131   8.614  24.528 -0.58 +0.00    +0.052 C 
DOCKED: ATOM     20  C   UNL d   1       8.840  10.372  30.457 -0.35 +0.02    +0.066 A 
DOCKED: ATOM     21  C   UNL d   1       8.886  10.097  31.831 -0.38 -0.01    -0.025 A 
DOCKED: ATOM     22  C   UNL d   1       8.519  11.267  32.463 -0.31 -0.01    -0.021 A 
DOCKED: ATOM     23  C   UNL d   1       8.258  12.203  31.456 -0.08 +0.02    +0.066 A 
DOCKED: ATOM     24  C   UNL d   1       9.252   8.804  32.522 -0.46 +0.02    +0.051 C 
DOCKED: ATOM     25  N   UNL d   1       7.276  14.115  29.333 -0.22 -0.05    -0.248 N 
DOCKED: ATOM     26  N   UNL d   1       7.214  13.198  26.631 -0.23 -0.02    -0.248 N 
DOCKED: ATOM     27  N   UNL d   1       8.352  10.708  27.504 -0.24 -0.03    -0.248 N 
DOCKED: ATOM     28  N   UNL d   1       8.412  11.638  30.233 -0.12 -0.07    -0.248 N 
DOCKED: ATOM     29 FE   UNL d   1       7.814  12.416  28.433 -0.08 +0.00    +0.000 Fe
DOCKED: ENDROOT
DOCKED: BRANCH   6  30
DOCKED: ATOM     30  C   UNL d   1       7.172  16.479  32.151 -0.26 +0.03    +0.052 C 
DOCKED: BRANCH  30  31
DOCKED: ATOM     31  C   UNL d   1       8.574  16.404  32.744 -0.16 +0.06    +0.115 C 
DOCKED: BRANCH  31  32
DOCKED: ATOM     32  C   UNL d   1       8.513  16.447  34.246 -0.14 +0.10    +0.139 C 
DOCKED: ATOM     33  O   UNL d   1       9.499  16.755  34.902 +0.00 -0.34    -0.650 OA
DOCKED: BRANCH  32  34
DOCKED: ATOM     34  O   UNL d   1       7.370  16.144  34.884 -0.47 -1.16    -0.776 OA
DOCKED: ATOM     35  H   UNL d   1       6.904  15.328  34.651 +0.03 +0.36    +0.167 HD
DOCKED: ENDBRANCH  32  34
DOCKED: ENDBRANCH  31  32
DOCKED: ENDBRANCH  30  31
DOCKED: ENDBRANCH   6  30
DOCKED: BRANCH  22  36
DOCKED: ATOM     36  C   UNL d   1       8.379  11.456  33.951 -0.27 +0.03    +0.052 C 
DOCKED: BRANCH  36  37
DOCKED: ATOM     37  C   UNL d   1       6.941  11.188  34.370 -0.33 +0.07    +0.115 C 
DOCKED: BRANCH  37  38
DOCKED: ATOM     38  C   UNL d   1       6.202  12.473  34.612 -0.26 +0.16    +0.139 C 
DOCKED: ATOM     39  O   UNL d   1       5.035  12.464  34.976 -0.54 -1.02    -0.650 OA
DOCKED: BRANCH  38  40
DOCKED: ATOM     40  O   UNL d   1       6.824  13.651  34.425 -0.07 -1.12    -0.776 OA
DOCKED: ATOM     41  H   UNL d   1       7.401  13.993  35.121 +0.04 +0.23    +0.167 HD
DOCKED: ENDBRANCH  38  40
DOCKED: ENDBRANCH  37  38
DOCKED: ENDBRANCH  36  37
DOCKED: ENDBRANCH  22  36
DOCKED: BRANCH  12  42
DOCKED: ATOM     42  C   UNL d   1       6.218  13.004  23.034 -0.46 +0.00    +0.004 C 
DOCKED: ATOM     43  C   UNL d   1       7.200  12.693  22.177 -0.50 +0.00    +0.012 C 
DOCKED: ENDBRANCH  12  42
DOCKED: BRANCH  17  44
DOCKED: ATOM     44  C   UNL d   1      10.104   7.467  27.269 -0.10 +0.00    +0.004 C 
DOCKED: ATOM     45  C   UNL d   1       9.535   6.288  26.997 -0.64 +0.00    +0.012 C 
DOCKED: ENDBRANCH  17  44
DOCKED: TORSDOF 10
DOCKED: TER
DOCKED: ENDMDL
________________________________________________________________________________


	BEGINNING GENETIC ALGORITHM DOCKING 72 of 100
Run: 72 Seed: 745964425 649527256 [ Run 72 of 100 GA/GALS ]
Beginning LAMARCKIAN GENETIC ALGORITHM (LGA), with a maximum of 25000000 energy evaluations.

Final-Value: -14.125


	FINAL GENETIC ALGORITHM DOCKED STATE
	_______________________________________________


Detailed state:  trans 15.550 6.802 16.304 quatxyzw -0.984279 -0.117175 -0.075867 -0.108207 center -0.174 -0.001 -0.047 ntor 10 -32.2337 168.0774 20.3964 -132.3178 93.1092 82.4315 -131.4041 -166.1741 179.4536 164.1186
State:	 15.550   6.802  16.304  -0.990 -0.118 -0.076 -167.576    -32.23  168.08   20.40 -132.32   93.11   82.43 -131.40 -166.17  179.45  164.12

DOCKED: MODEL       72
DOCKED: USER    Run = 72
DOCKED: USER    DPF = D:/Protein_go_brrr/autodock/final/1A3N/heme_Fe/dock.dpf
DOCKED: USER  
DOCKED: USER    Estimated Free Energy of Binding    =   -8.95 kcal/mol  [=(1)+(2)+(3)-(4)]
DOCKED: USER    Estimated Inhibition Constant, Ki   =  276.73 nM (nanomolar)  [Temperature = 298.15 K]
DOCKED: USER    
DOCKED: USER    (1) Final Intermolecular Energy     =  -11.93 kcal/mol
DOCKED: USER        vdW + Hbond + desolv Energy     =   -9.83 kcal/mol
DOCKED: USER        Electrostatic Energy            =   -2.09 kcal/mol
DOCKED: USER    (2) Final Total Internal Energy     =   -2.20 kcal/mol
DOCKED: USER    (3) Torsional Free Energy           =   +2.98 kcal/mol
DOCKED: USER    (4) Unbound System's Energy  [=(2)] =   -2.20 kcal/mol
DOCKED: USER    
DOCKED: USER    
DOCKED: USER    NEWDPF move heme_Fe_opt.pdbqt
DOCKED: USER    NEWDPF about -0.174000 -0.001000 -0.047000
DOCKED: USER    NEWDPF tran0 15.550395 6.801660 16.304089
DOCKED: USER    NEWDPF quaternion0 -0.984279 -0.117175 -0.075867 -0.108207
DOCKED: USER    NEWDPF axisangle0 -0.990093 -0.117867 -0.076315 -167.576015
DOCKED: USER    NEWDPF quat0 -0.990093 -0.117867 -0.076315 -167.576015
DOCKED: USER    NEWDPF dihe0 -32.23 168.08 20.40 -132.32 93.11 82.43 -131.40 -166.17 179.45 164.12 
DOCKED: USER  keepresnum = 1 
DOCKED: USER  
DOCKED: REMARK  10 active torsions:
DOCKED: REMARK  status: ('A' for Active; 'I' for Inactive)
DOCKED: REMARK    1  A    between atoms: C_6  and  C_10 
DOCKED: REMARK    2  A    between atoms: C_10  and  C_11 
DOCKED: REMARK    3  A    between atoms: C_11  and  C_12 
DOCKED: REMARK    4  A    between atoms: C_12  and  O_14 
DOCKED: REMARK    5  A    between atoms: C_17  and  C_20 
DOCKED: REMARK    6  A    between atoms: C_24  and  C_27 
DOCKED: REMARK    7  A    between atoms: C_31  and  C_34 
DOCKED: REMARK    8  A    between atoms: C_34  and  C_35 
DOCKED: REMARK    9  A    between atoms: C_35  and  C_36 
DOCKED: REMARK   10  A    between atoms: C_36  and  O_38 
DOCKED: USER                              x       y       z     vdW  Elec       q    Type
DOCKED: USER                           _______ _______ _______ _____ _____    ______ ____
DOCKED: ROOT
DOCKED: ATOM      1  C   UNL d   1      13.698   6.556  15.456 -0.37 +0.03    +0.064 C 
DOCKED: ATOM      2  C   UNL d   1      16.362  10.450  16.930 -0.22 +0.00    +0.064 A 
DOCKED: ATOM      3  C   UNL d   1      20.247   7.632  17.122 -0.29 +0.01    +0.064 C 
DOCKED: ATOM      4  C   UNL d   1      17.665   3.828  15.797 -0.27 +0.00    +0.064 C 
DOCKED: ATOM      5  C   UNL d   1      14.070   7.895  15.934 -0.27 +0.02    +0.066 A 
DOCKED: ATOM      6  C   UNL d   1      13.184   8.943  16.120 -0.36 -0.00    -0.021 A 
DOCKED: ATOM      7  C   UNL d   1      13.925  10.025  16.526 -0.40 -0.00    -0.025 A 
DOCKED: ATOM      8  C   UNL d   1      15.237   9.595  16.572 -0.27 +0.01    +0.066 A 
DOCKED: ATOM      9  C   UNL d   1      13.392  11.383  16.866 -0.50 +0.00    +0.051 C 
DOCKED: ATOM     10  C   UNL d   1      17.629  10.046  17.038 -0.14 +0.01    +0.066 A 
DOCKED: ATOM     11  C   UNL d   1      18.701  10.911  17.271 -0.28 -0.00    -0.021 A 
DOCKED: ATOM     12  C   UNL d   1      19.835  10.125  17.314 -0.26 +0.00    +0.000 A 
DOCKED: ATOM     13  C   UNL d   1      19.393   8.809  17.094 -0.20 +0.02    +0.070 A 
DOCKED: ATOM     14  C   UNL d   1      18.656  12.422  17.379 -0.30 -0.00    +0.052 C 
DOCKED: ATOM     15  C   UNL d   1      19.835   6.369  16.860 -0.23 +0.01    +0.066 A 
DOCKED: ATOM     16  C   UNL d   1      20.660   5.259  16.994 -0.27 +0.00    -0.021 A 
DOCKED: ATOM     17  C   UNL d   1      19.918   4.161  16.609 -0.25 -0.00    +0.000 A 
DOCKED: ATOM     18  C   UNL d   1      18.657   4.628  16.245 -0.22 -0.00    +0.070 A 
DOCKED: ATOM     19  C   UNL d   1      22.096   5.231  17.441 -0.22 -0.01    +0.052 C 
DOCKED: ATOM     20  C   UNL d   1      16.308   4.275  15.464 -0.22 +0.04    +0.066 A 
DOCKED: ATOM     21  C   UNL d   1      15.337   3.501  14.814 -0.21 -0.01    -0.025 A 
DOCKED: ATOM     22  C   UNL d   1      14.210   4.294  14.738 -0.27 -0.02    -0.021 A 
DOCKED: ATOM     23  C   UNL d   1      14.538   5.516  15.336 -0.29 +0.04    +0.066 A 
DOCKED: ATOM     24  C   UNL d   1      15.454   2.090  14.284 -0.17 +0.01    +0.051 C 
DOCKED: ATOM     25  N   UNL d   1      15.321   8.296  16.221 -0.17 -0.08    -0.248 N 
DOCKED: ATOM     26  N   UNL d   1      18.050   8.761  16.918 -0.06 -0.07    -0.248 N 
DOCKED: ATOM     27  N   UNL d   1      18.591   5.980  16.440 -0.14 -0.05    -0.248 N 
DOCKED: ATOM     28  N   UNL d   1      15.833   5.515  15.736 -0.21 -0.17    -0.248 N 
DOCKED: ATOM     29 FE   UNL d   1      16.942   7.136  16.327 -0.06 +0.00    +0.000 Fe
DOCKED: ENDROOT
DOCKED: BRANCH   6  30
DOCKED: ATOM     30  C   UNL d   1      11.704   8.914  15.943 -0.45 +0.01    +0.052 C 
DOCKED: BRANCH  30  31
DOCKED: ATOM     31  C   UNL d   1      11.322   9.311  14.521 -0.26 +0.02    +0.115 C 
DOCKED: BRANCH  31  32
DOCKED: ATOM     32  C   UNL d   1      12.146   8.547  13.522 -0.12 +0.04    +0.139 C 
DOCKED: ATOM     33  O   UNL d   1      11.734   7.496  13.050 +0.03 -0.22    -0.650 OA
DOCKED: BRANCH  32  34
DOCKED: ATOM     34  O   UNL d   1      13.346   9.013  13.139 +0.11 -0.29    -0.776 OA
DOCKED: ATOM     35  H   UNL d   1      14.043   8.383  12.910 +0.04 +0.11    +0.167 HD
DOCKED: ENDBRANCH  32  34
DOCKED: ENDBRANCH  31  32
DOCKED: ENDBRANCH  30  31
DOCKED: ENDBRANCH   6  30
DOCKED: BRANCH  22  36
DOCKED: ATOM     36  C   UNL d   1      12.908   3.912  14.084 -0.27 +0.05    +0.052 C 
DOCKED: BRANCH  36  37
DOCKED: ATOM     37  C   UNL d   1      12.841   4.512  12.687 -0.18 +0.07    +0.115 C 
DOCKED: BRANCH  37  38
DOCKED: ATOM     38  C   UNL d   1      14.186   5.025  12.256 -0.05 +0.15    +0.139 C 
DOCKED: ATOM     39  O   UNL d   1      15.023   4.267  11.788 -0.24 -0.84    -0.650 OA
DOCKED: BRANCH  38  40
DOCKED: ATOM     40  O   UNL d   1      14.479   6.331  12.386 +0.07 -1.14    -0.776 OA
DOCKED: ATOM     41  H   UNL d   1      13.768   6.954  12.588 +0.04 +0.14    +0.167 HD
DOCKED: ENDBRANCH  38  40
DOCKED: ENDBRANCH  37  38
DOCKED: ENDBRANCH  36  37
DOCKED: ENDBRANCH  22  36
DOCKED: BRANCH  12  42
DOCKED: ATOM     42  C   UNL d   1      21.223  10.637  17.531 -0.40 +0.00    +0.004 C 
DOCKED: ATOM     43  C   UNL d   1      21.591  11.151  18.712 -0.55 +0.01    +0.012 C 
DOCKED: ENDBRANCH  12  42
DOCKED: BRANCH  17  44
DOCKED: ATOM     44  C   UNL d   1      20.379   2.754  16.609 -0.24 -0.00    +0.004 C 
DOCKED: ATOM     45  C   UNL d   1      21.166   2.291  15.632 -0.28 -0.00    +0.012 C 
DOCKED: ENDBRANCH  17  44
DOCKED: TORSDOF 10
DOCKED: TER
DOCKED: ENDMDL
________________________________________________________________________________


	BEGINNING GENETIC ALGORITHM DOCKING 73 of 100
Run: 73 Seed: 611380596 133914098 [ Run 73 of 100 GA/GALS ]
Beginning LAMARCKIAN GENETIC ALGORITHM (LGA), with a maximum of 25000000 energy evaluations.

Final-Value: -17.360


	FINAL GENETIC ALGORITHM DOCKED STATE
	_______________________________________________


Detailed state:  trans 1.868 -6.541 -5.097 quatxyzw -0.727499 0.085448 -0.614773 0.292400 center -0.174 -0.001 -0.047 ntor 10 90.8862 -92.1971 61.5270 -116.7887 -158.9898 171.5697 73.9274 73.5007 14.7354 155.5943
State:	  1.868  -6.541  -5.097  -0.761  0.089 -0.643 145.997     90.89  -92.20   61.53 -116.79 -158.99  171.57   73.93   73.50   14.74  155.59

DOCKED: MODEL       73
DOCKED: USER    Run = 73
DOCKED: USER    DPF = D:/Protein_go_brrr/autodock/final/1A3N/heme_Fe/dock.dpf
DOCKED: USER  
DOCKED: USER    Estimated Free Energy of Binding    =  -12.61 kcal/mol  [=(1)+(2)+(3)-(4)]
DOCKED: USER    Estimated Inhibition Constant, Ki   =  573.99 pM (picomolar)  [Temperature = 298.15 K]
DOCKED: USER    
DOCKED: USER    (1) Final Intermolecular Energy     =  -15.59 kcal/mol
DOCKED: USER        vdW + Hbond + desolv Energy     =  -13.69 kcal/mol
DOCKED: USER        Electrostatic Energy            =   -1.90 kcal/mol
DOCKED: USER    (2) Final Total Internal Energy     =   -1.77 kcal/mol
DOCKED: USER    (3) Torsional Free Energy           =   +2.98 kcal/mol
DOCKED: USER    (4) Unbound System's Energy  [=(2)] =   -1.77 kcal/mol
DOCKED: USER    
DOCKED: USER    
DOCKED: USER    NEWDPF move heme_Fe_opt.pdbqt
DOCKED: USER    NEWDPF about -0.174000 -0.001000 -0.047000
DOCKED: USER    NEWDPF tran0 1.868117 -6.540757 -5.097013
DOCKED: USER    NEWDPF quaternion0 -0.727499 0.085448 -0.614773 0.292400
DOCKED: USER    NEWDPF axisangle0 -0.760746 0.089353 -0.642869 145.996553
DOCKED: USER    NEWDPF quat0 -0.760746 0.089353 -0.642869 145.996553
DOCKED: USER    NEWDPF dihe0 90.89 -92.20 61.53 -116.79 -158.99 171.57 73.93 73.50 14.74 155.59 
DOCKED: USER  keepresnum = 1 
DOCKED: USER  
DOCKED: REMARK  10 active torsions:
DOCKED: REMARK  status: ('A' for Active; 'I' for Inactive)
DOCKED: REMARK    1  A    between atoms: C_6  and  C_10 
DOCKED: REMARK    2  A    between atoms: C_10  and  C_11 
DOCKED: REMARK    3  A    between atoms: C_11  and  C_12 
DOCKED: REMARK    4  A    between atoms: C_12  and  O_14 
DOCKED: REMARK    5  A    between atoms: C_17  and  C_20 
DOCKED: REMARK    6  A    between atoms: C_24  and  C_27 
DOCKED: REMARK    7  A    between atoms: C_31  and  C_34 
DOCKED: REMARK    8  A    between atoms: C_34  and  C_35 
DOCKED: REMARK    9  A    between atoms: C_35  and  C_36 
DOCKED: REMARK   10  A    between atoms: C_36  and  O_38 
DOCKED: USER                              x       y       z     vdW  Elec       q    Type
DOCKED: USER                           _______ _______ _______ _____ _____    ______ ____
DOCKED: ROOT
DOCKED: ATOM      1  C   UNL d   1       1.891  -7.241  -7.026 -0.27 +0.02    +0.064 C 
DOCKED: ATOM      2  C   UNL d   1       4.174  -3.571  -4.628 -0.42 +0.01    +0.064 A 
DOCKED: ATOM      3  C   UNL d   1       2.862  -5.569  -0.462 -0.43 +0.00    +0.064 C 
DOCKED: ATOM      4  C   UNL d   1       0.557  -9.073  -2.764 -0.44 +0.00    +0.064 C 
DOCKED: ATOM      5  C   UNL d   1       2.584  -5.977  -6.738 -0.13 +0.02    +0.066 A 
DOCKED: ATOM      6  C   UNL d   1       3.012  -5.074  -7.697 -0.31 -0.01    -0.021 A 
DOCKED: ATOM      7  C   UNL d   1       3.649  -4.057  -7.030 -0.39 -0.00    -0.025 A 
DOCKED: ATOM      8  C   UNL d   1       3.586  -4.379  -5.688 -0.38 +0.01    +0.066 A 
DOCKED: ATOM      9  C   UNL d   1       4.263  -2.841  -7.654 -0.42 -0.00    +0.051 C 
DOCKED: ATOM     10  C   UNL d   1       4.078  -3.829  -3.322 -0.40 +0.01    +0.066 A 
DOCKED: ATOM     11  C   UNL d   1       4.749  -3.101  -2.337 -0.45 -0.00    -0.021 A 
DOCKED: ATOM     12  C   UNL d   1       4.400  -3.668  -1.127 -0.46 +0.00    +0.000 A 
DOCKED: ATOM     13  C   UNL d   1       3.533  -4.729  -1.441 -0.36 +0.00    +0.070 A 
DOCKED: ATOM     14  C   UNL d   1       5.728  -1.963  -2.542 -0.56 +0.00    +0.052 C 
DOCKED: ATOM     15  C   UNL d   1       2.067  -6.624  -0.760 -0.37 +0.00    +0.066 A 
DOCKED: ATOM     16  C   UNL d   1       1.365  -7.340   0.201 -0.41 -0.00    -0.021 A 
DOCKED: ATOM     17  C   UNL d   1       0.702  -8.354  -0.461 -0.47 +0.00    +0.000 A 
DOCKED: ATOM     18  C   UNL d   1       1.019  -8.234  -1.812 -0.36 +0.00    +0.070 A 
DOCKED: ATOM     19  C   UNL d   1       1.337  -7.100   1.686 -0.46 +0.00    +0.052 C 
DOCKED: ATOM     20  C   UNL d   1       0.819  -8.941  -4.202 -0.33 +0.01    +0.066 A 
DOCKED: ATOM     21  C   UNL d   1       0.517  -9.907  -5.172 -0.29 -0.00    -0.025 A 
DOCKED: ATOM     22  C   UNL d   1       0.894  -9.359  -6.381 -0.26 -0.01    -0.021 A 
DOCKED: ATOM     23  C   UNL d   1       1.415  -8.090  -6.101 -0.28 +0.02    +0.066 A 
DOCKED: ATOM     24  C   UNL d   1      -0.091 -11.277  -4.982 -0.20 +0.01    +0.051 C 
DOCKED: ATOM     25  N   UNL d   1       2.929  -5.543  -5.513 -0.18 -0.06    -0.248 N 
DOCKED: ATOM     26  N   UNL d   1       3.343  -4.833  -2.779 -0.24 -0.02    -0.248 N 
DOCKED: ATOM     27  N   UNL d   1       1.823  -7.145  -2.003 -0.20 +0.00    -0.248 N 
DOCKED: ATOM     28  N   UNL d   1       1.408  -7.858  -4.766 -0.23 -0.05    -0.248 N 
DOCKED: ATOM     29 FE   UNL d   1       2.374  -6.347  -3.772 -0.08 +0.00    +0.000 Fe
DOCKED: ENDROOT
DOCKED: BRANCH   6  30
DOCKED: ATOM     30  C   UNL d   1       2.808  -5.159  -9.171 -0.23 +0.02    +0.052 C 
DOCKED: BRANCH  30  31
DOCKED: ATOM     31  C   UNL d   1       1.713  -4.199  -9.622 -0.28 +0.05    +0.115 C 
DOCKED: BRANCH  31  32
DOCKED: ATOM     32  C   UNL d   1       0.458  -4.954  -9.961 -0.15 +0.16    +0.139 C 
DOCKED: ATOM     33  O   UNL d   1      -0.393  -4.455 -10.684 -0.12 -0.85    -0.650 OA
DOCKED: BRANCH  32  34
DOCKED: ATOM     34  O   UNL d   1       0.259  -6.188  -9.469 -0.49 -1.19    -0.776 OA
DOCKED: ATOM     35  H   UNL d   1       0.584  -6.951  -9.968 +0.03 +0.16    +0.167 HD
DOCKED: ENDBRANCH  32  34
DOCKED: ENDBRANCH  31  32
DOCKED: ENDBRANCH  30  31
DOCKED: ENDBRANCH   6  30
DOCKED: BRANCH  22  36
DOCKED: ATOM     36  C   UNL d   1       0.803 -10.039  -7.722 -0.19 +0.01    +0.052 C 
DOCKED: BRANCH  36  37
DOCKED: ATOM     37  C   UNL d   1       2.196 -10.424  -8.197 -0.04 +0.02    +0.115 C 
DOCKED: BRANCH  37  38
DOCKED: ATOM     38  C   UNL d   1       2.646  -9.537  -9.323 -0.16 +0.03    +0.139 C 
DOCKED: ATOM     39  O   UNL d   1       3.794  -9.586  -9.738 -0.04 -0.10    -0.650 OA
DOCKED: BRANCH  38  40
DOCKED: ATOM     40  O   UNL d   1       1.780  -8.673  -9.884 +0.05 -0.26    -0.776 OA
DOCKED: ATOM     41  H   UNL d   1       1.681  -7.791  -9.499 +0.04 +0.07    +0.167 HD
DOCKED: ENDBRANCH  38  40
DOCKED: ENDBRANCH  37  38
DOCKED: ENDBRANCH  36  37
DOCKED: ENDBRANCH  22  36
DOCKED: BRANCH  12  42
DOCKED: ATOM     42  C   UNL d   1       4.897  -3.211   0.207 -0.51 +0.00    +0.004 C 
DOCKED: ATOM     43  C   UNL d   1       4.083  -2.591   1.071 -0.64 +0.00    +0.012 C 
DOCKED: ENDBRANCH  12  42
DOCKED: BRANCH  17  44
DOCKED: ATOM     44  C   UNL d   1      -0.193  -9.358   0.157 -0.58 -0.00    +0.004 C 
DOCKED: ATOM     45  C   UNL d   1       0.273 -10.227   1.060 -0.63 -0.00    +0.012 C 
DOCKED: ENDBRANCH  17  44
DOCKED: TORSDOF 10
DOCKED: TER
DOCKED: ENDMDL
________________________________________________________________________________


	BEGINNING GENETIC ALGORITHM DOCKING 74 of 100
Run: 74 Seed: 311793257 623565426 [ Run 74 of 100 GA/GALS ]
Beginning LAMARCKIAN GENETIC ALGORITHM (LGA), with a maximum of 25000000 energy evaluations.

Final-Value: -11.792


	FINAL GENETIC ALGORITHM DOCKED STATE
	_______________________________________________


Detailed state:  trans 16.583 -18.273 13.862 quatxyzw -0.345045 0.033760 0.336649 0.875483 center -0.174 -0.001 -0.047 ntor 10 -51.1757 34.5265 75.9374 62.1852 45.8368 168.8245 -41.7453 -54.5924 173.3938 19.3395
State:	 16.583 -18.273  13.862  -0.714  0.070  0.697 57.796    -51.18   34.53   75.94   62.19   45.84  168.82  -41.75  -54.59  173.39   19.34

DOCKED: MODEL       74
DOCKED: USER    Run = 74
DOCKED: USER    DPF = D:/Protein_go_brrr/autodock/final/1A3N/heme_Fe/dock.dpf
DOCKED: USER  
DOCKED: USER    Estimated Free Energy of Binding    =   -6.93 kcal/mol  [=(1)+(2)+(3)-(4)]
DOCKED: USER    Estimated Inhibition Constant, Ki   =    8.38 uM (micromolar)  [Temperature = 298.15 K]
DOCKED: USER    
DOCKED: USER    (1) Final Intermolecular Energy     =   -9.91 kcal/mol
DOCKED: USER        vdW + Hbond + desolv Energy     =   -7.13 kcal/mol
DOCKED: USER        Electrostatic Energy            =   -2.78 kcal/mol
DOCKED: USER    (2) Final Total Internal Energy     =   -1.88 kcal/mol
DOCKED: USER    (3) Torsional Free Energy           =   +2.98 kcal/mol
DOCKED: USER    (4) Unbound System's Energy  [=(2)] =   -1.88 kcal/mol
DOCKED: USER    
DOCKED: USER    
DOCKED: USER    NEWDPF move heme_Fe_opt.pdbqt
DOCKED: USER    NEWDPF about -0.174000 -0.001000 -0.047000
DOCKED: USER    NEWDPF tran0 16.582813 -18.273000 13.862072
DOCKED: USER    NEWDPF quaternion0 -0.345045 0.033760 0.336649 0.875483
DOCKED: USER    NEWDPF axisangle0 -0.714013 0.069860 0.696639 57.795519
DOCKED: USER    NEWDPF quat0 -0.714013 0.069860 0.696639 57.795519
DOCKED: USER    NEWDPF dihe0 -51.18 34.53 75.94 62.19 45.84 168.82 -41.75 -54.59 173.39 19.34 
DOCKED: USER  keepresnum = 1 
DOCKED: USER  
DOCKED: REMARK  10 active torsions:
DOCKED: REMARK  status: ('A' for Active; 'I' for Inactive)
DOCKED: REMARK    1  A    between atoms: C_6  and  C_10 
DOCKED: REMARK    2  A    between atoms: C_10  and  C_11 
DOCKED: REMARK    3  A    between atoms: C_11  and  C_12 
DOCKED: REMARK    4  A    between atoms: C_12  and  O_14 
DOCKED: REMARK    5  A    between atoms: C_17  and  C_20 
DOCKED: REMARK    6  A    between atoms: C_24  and  C_27 
DOCKED: REMARK    7  A    between atoms: C_31  and  C_34 
DOCKED: REMARK    8  A    between atoms: C_34  and  C_35 
DOCKED: REMARK    9  A    between atoms: C_35  and  C_36 
DOCKED: REMARK   10  A    between atoms: C_36  and  O_38 
DOCKED: USER                              x       y       z     vdW  Elec       q    Type
DOCKED: USER                           _______ _______ _______ _____ _____    ______ ____
DOCKED: ROOT
DOCKED: ATOM      1  C   UNL d   1      14.867 -17.400  14.572 -0.04 +0.04    +0.064 C 
DOCKED: ATOM      2  C   UNL d   1      15.857 -21.305  11.708 -0.10 +0.01    +0.064 A 
DOCKED: ATOM      3  C   UNL d   1      20.435 -21.112  13.147 -0.26 -0.01    +0.064 C 
DOCKED: ATOM      4  C   UNL d   1      19.522 -17.268  15.844 -0.25 +0.01    +0.064 C 
DOCKED: ATOM      5  C   UNL d   1      14.739 -18.465  13.568 -0.02 +0.03    +0.066 A 
DOCKED: ATOM      6  C   UNL d   1      13.586 -18.742  12.851 -0.05 -0.01    -0.021 A 
DOCKED: ATOM      7  C   UNL d   1      13.861 -19.829  12.059 -0.06 -0.01    -0.025 A 
DOCKED: ATOM      8  C   UNL d   1      15.172 -20.174  12.323 -0.06 +0.02    +0.066 A 
DOCKED: ATOM      9  C   UNL d   1      12.918 -20.478  11.093 -0.11 +0.02    +0.051 C 
DOCKED: ATOM     10  C   UNL d   1      17.137 -21.625  11.902 -0.11 +0.00    +0.066 A 
DOCKED: ATOM     11  C   UNL d   1      17.734 -22.779  11.389 -0.13 +0.00    -0.021 A 
DOCKED: ATOM     12  C   UNL d   1      19.050 -22.756  11.804 -0.14 -0.00    +0.000 A 
DOCKED: ATOM     13  C   UNL d   1      19.188 -21.581  12.563 -0.02 -0.00    +0.070 A 
DOCKED: ATOM     14  C   UNL d   1      17.064 -23.886  10.599 -0.10 -0.00    +0.052 C 
DOCKED: ATOM     15  C   UNL d   1      20.562 -20.009  13.922 -0.29 -0.00    +0.066 A 
DOCKED: ATOM     16  C   UNL d   1      21.787 -19.540  14.378 -0.40 +0.00    -0.021 A 
DOCKED: ATOM     17  C   UNL d   1      21.526 -18.433  15.159 -0.34 -0.00    +0.000 A 
DOCKED: ATOM     18  C   UNL d   1      20.144 -18.256  15.164 -0.22 +0.00    +0.070 A 
DOCKED: ATOM     19  C   UNL d   1      23.150 -20.122  14.113 -0.52 +0.01    +0.052 C 
DOCKED: ATOM     20  C   UNL d   1      18.076 -17.013  15.823 -0.11 +0.02    +0.066 A 
DOCKED: ATOM     21  C   UNL d   1      17.397 -16.128  16.672 -0.20 -0.01    -0.025 A 
DOCKED: ATOM     22  C   UNL d   1      16.074 -16.172  16.284 -0.13 -0.01    -0.021 A 
DOCKED: ATOM     23  C   UNL d   1      15.997 -17.082  15.223 -0.04 +0.03    +0.066 A 
DOCKED: ATOM     24  C   UNL d   1      17.955 -15.284  17.795 -0.39 +0.02    +0.051 C 
DOCKED: ATOM     25  N   UNL d   1      15.707 -19.337  13.234 -0.02 -0.07    -0.248 N 
DOCKED: ATOM     26  N   UNL d   1      18.021 -20.896  12.630 -0.09 -0.02    -0.248 N 
DOCKED: ATOM     27  N   UNL d   1      19.554 -19.197  14.368 -0.11 -0.02    -0.248 N 
DOCKED: ATOM     28  N   UNL d   1      17.214 -17.626  14.976 -0.01 -0.07    -0.248 N 
DOCKED: ATOM     29 FE   UNL d   1      17.618 -19.260  13.804 -0.03 +0.00    +0.000 Fe
DOCKED: ENDROOT
DOCKED: BRANCH   6  30
DOCKED: ATOM     30  C   UNL d   1      12.295 -17.999  12.899 -0.09 +0.04    +0.052 C 
DOCKED: BRANCH  30  31
DOCKED: ATOM     31  C   UNL d   1      11.309 -18.690  13.836 -0.07 +0.10    +0.115 C 
DOCKED: BRANCH  31  32
DOCKED: ATOM     32  C   UNL d   1      10.573 -17.675  14.666 -0.08 +0.16    +0.139 C 
DOCKED: ATOM     33  O   UNL d   1      10.106 -16.669  14.150 -0.32 -0.98    -0.650 OA
DOCKED: BRANCH  32  34
DOCKED: ATOM     34  O   UNL d   1      10.422 -17.865  15.987 -0.01 -1.05    -0.776 OA
DOCKED: ATOM     35  H   UNL d   1      10.670 -17.155  16.595 +0.01 +0.34    +0.167 HD
DOCKED: ENDBRANCH  32  34
DOCKED: ENDBRANCH  31  32
DOCKED: ENDBRANCH  30  31
DOCKED: ENDBRANCH   6  30
DOCKED: BRANCH  22  36
DOCKED: ATOM     36  C   UNL d   1      14.943 -15.417  16.930 -0.14 +0.05    +0.052 C 
DOCKED: BRANCH  36  37
DOCKED: ATOM     37  C   UNL d   1      14.348 -14.432  15.934 -0.14 +0.08    +0.115 C 
DOCKED: BRANCH  37  38
DOCKED: ATOM     38  C   UNL d   1      12.871 -14.653  15.775 -0.07 +0.13    +0.139 C 
DOCKED: ATOM     39  O   UNL d   1      12.177 -13.840  15.181 +0.05 -0.47    -0.650 OA
DOCKED: BRANCH  38  40
DOCKED: ATOM     40  O   UNL d   1      12.297 -15.754  16.292 -0.45 -1.40    -0.776 OA
DOCKED: ATOM     41  H   UNL d   1      11.554 -16.161  15.824 +0.02 +0.26    +0.167 HD
DOCKED: ENDBRANCH  38  40
DOCKED: ENDBRANCH  37  38
DOCKED: ENDBRANCH  36  37
DOCKED: ENDBRANCH  22  36
DOCKED: BRANCH  12  42
DOCKED: ATOM     42  C   UNL d   1      20.065 -23.810  11.492 -0.18 -0.00    +0.004 C 
DOCKED: ATOM     43  C   UNL d   1      21.215 -23.499  10.880 -0.26 -0.00    +0.012 C 
DOCKED: ENDBRANCH  12  42
DOCKED: BRANCH  17  44
DOCKED: ATOM     44  C   UNL d   1      22.534 -17.589  15.839 -0.49 +0.00    +0.004 C 
DOCKED: ATOM     45  C   UNL d   1      22.691 -16.305  15.502 -0.55 +0.00    +0.012 C 
DOCKED: ENDBRANCH  17  44
DOCKED: TORSDOF 10
DOCKED: TER
DOCKED: ENDMDL
________________________________________________________________________________


	BEGINNING GENETIC ALGORITHM DOCKING 75 of 100
Run: 75 Seed: 1003383062 640661785 [ Run 75 of 100 GA/GALS ]
Beginning LAMARCKIAN GENETIC ALGORITHM (LGA), with a maximum of 25000000 energy evaluations.

Final-Value: -17.766


	FINAL GENETIC ALGORITHM DOCKED STATE
	_______________________________________________


Detailed state:  trans 2.815 -6.689 -4.293 quatxyzw -0.275770 -0.713093 -0.084856 -0.638943 center -0.174 -0.001 -0.047 ntor 10 -43.0556 174.7997 93.3180 -137.7067 56.5784 -33.6517 -53.1265 -62.4475 -180.0000 123.2384
State:	  2.815  -6.689  -4.293  -0.358 -0.927 -0.110 -100.574    -43.06  174.80   93.32 -137.71   56.58  -33.65  -53.13  -62.45 -180.00  123.24

DOCKED: MODEL       75
DOCKED: USER    Run = 75
DOCKED: USER    DPF = D:/Protein_go_brrr/autodock/final/1A3N/heme_Fe/dock.dpf
DOCKED: USER  
DOCKED: USER    Estimated Free Energy of Binding    =  -13.36 kcal/mol  [=(1)+(2)+(3)-(4)]
DOCKED: USER    Estimated Inhibition Constant, Ki   =  161.38 pM (picomolar)  [Temperature = 298.15 K]
DOCKED: USER    
DOCKED: USER    (1) Final Intermolecular Energy     =  -16.34 kcal/mol
DOCKED: USER        vdW + Hbond + desolv Energy     =  -14.48 kcal/mol
DOCKED: USER        Electrostatic Energy            =   -1.86 kcal/mol
DOCKED: USER    (2) Final Total Internal Energy     =   -1.42 kcal/mol
DOCKED: USER    (3) Torsional Free Energy           =   +2.98 kcal/mol
DOCKED: USER    (4) Unbound System's Energy  [=(2)] =   -1.42 kcal/mol
DOCKED: USER    
DOCKED: USER    
DOCKED: USER    NEWDPF move heme_Fe_opt.pdbqt
DOCKED: USER    NEWDPF about -0.174000 -0.001000 -0.047000
DOCKED: USER    NEWDPF tran0 2.814875 -6.689333 -4.293465
DOCKED: USER    NEWDPF quaternion0 -0.275770 -0.713093 -0.084856 -0.638943
DOCKED: USER    NEWDPF axisangle0 -0.358491 -0.926993 -0.110310 -100.573920
DOCKED: USER    NEWDPF quat0 -0.358491 -0.926993 -0.110310 -100.573920
DOCKED: USER    NEWDPF dihe0 -43.06 174.80 93.32 -137.71 56.58 -33.65 -53.13 -62.45 -180.00 123.24 
DOCKED: USER  keepresnum = 1 
DOCKED: USER  
DOCKED: REMARK  10 active torsions:
DOCKED: REMARK  status: ('A' for Active; 'I' for Inactive)
DOCKED: REMARK    1  A    between atoms: C_6  and  C_10 
DOCKED: REMARK    2  A    between atoms: C_10  and  C_11 
DOCKED: REMARK    3  A    between atoms: C_11  and  C_12 
DOCKED: REMARK    4  A    between atoms: C_12  and  O_14 
DOCKED: REMARK    5  A    between atoms: C_17  and  C_20 
DOCKED: REMARK    6  A    between atoms: C_24  and  C_27 
DOCKED: REMARK    7  A    between atoms: C_31  and  C_34 
DOCKED: REMARK    8  A    between atoms: C_34  and  C_35 
DOCKED: REMARK    9  A    between atoms: C_35  and  C_36 
DOCKED: REMARK   10  A    between atoms: C_36  and  O_38 
DOCKED: USER                              x       y       z     vdW  Elec       q    Type
DOCKED: USER                           _______ _______ _______ _____ _____    ______ ____
DOCKED: ROOT
DOCKED: ATOM      1  C   UNL d   1       2.388  -7.051  -6.268 -0.31 +0.02    +0.064 C 
DOCKED: ATOM      2  C   UNL d   1       0.772  -8.874  -1.967 -0.40 +0.00    +0.064 A 
DOCKED: ATOM      3  C   UNL d   1       2.783  -5.142   0.291 -0.41 +0.00    +0.064 C 
DOCKED: ATOM      4  C   UNL d   1       4.446  -3.416  -3.849 -0.49 +0.01    +0.064 C 
DOCKED: ATOM      5  C   UNL d   1       1.818  -7.954  -5.258 -0.32 +0.01    +0.066 A 
DOCKED: ATOM      6  C   UNL d   1       1.251  -9.188  -5.531 -0.31 -0.00    -0.021 A 
DOCKED: ATOM      7  C   UNL d   1       0.799  -9.692  -4.336 -0.33 -0.00    -0.025 A 
DOCKED: ATOM      8  C   UNL d   1       1.109  -8.745  -3.379 -0.30 +0.01    +0.066 A 
DOCKED: ATOM      9  C   UNL d   1       0.128 -11.016  -4.134 -0.16 +0.00    +0.051 C 
DOCKED: ATOM     10  C   UNL d   1       1.109  -8.003  -1.014 -0.38 +0.00    +0.066 A 
DOCKED: ATOM     11  C   UNL d   1       0.675  -8.095   0.310 -0.43 -0.00    -0.021 A 
DOCKED: ATOM     12  C   UNL d   1       1.227  -7.021   0.978 -0.35 +0.00    +0.000 A 
DOCKED: ATOM     13  C   UNL d   1       1.971  -6.317   0.016 -0.37 +0.00    +0.070 A 
DOCKED: ATOM     14  C   UNL d   1      -0.277  -9.119   0.895 -0.60 -0.00    +0.052 C 
DOCKED: ATOM     15  C   UNL d   1       3.459  -4.430  -0.642 -0.37 +0.00    +0.066 A 
DOCKED: ATOM     16  C   UNL d   1       4.303  -3.374  -0.325 -0.47 -0.00    -0.021 A 
DOCKED: ATOM     17  C   UNL d   1       4.781  -2.872  -1.518 -0.48 +0.00    +0.000 A 
DOCKED: ATOM     18  C   UNL d   1       4.213  -3.633  -2.536 -0.39 +0.00    +0.070 A 
DOCKED: ATOM     19  C   UNL d   1       4.630  -2.838   1.043 -0.48 +0.00    +0.052 C 
DOCKED: ATOM     20  C   UNL d   1       3.915  -4.234  -4.946 -0.41 +0.01    +0.066 A 
DOCKED: ATOM     21  C   UNL d   1       3.981  -3.906  -6.307 -0.43 -0.00    -0.025 A 
DOCKED: ATOM     22  C   UNL d   1       3.400  -4.962  -6.979 -0.34 -0.00    -0.021 A 
DOCKED: ATOM     23  C   UNL d   1       2.998  -5.885  -6.006 -0.30 +0.01    +0.066 A 
DOCKED: ATOM     24  C   UNL d   1       4.555  -2.666  -6.952 -0.38 +0.00    +0.051 C 
DOCKED: ATOM     25  N   UNL d   1       1.737  -7.693  -3.942 -0.20 -0.02    -0.248 N 
DOCKED: ATOM     26  N   UNL d   1       1.893  -6.910  -1.201 -0.25 -0.00    -0.248 N 
DOCKED: ATOM     27  N   UNL d   1       3.435  -4.619  -1.997 -0.23 -0.01    -0.248 N 
DOCKED: ATOM     28  N   UNL d   1       3.274  -5.415  -4.765 -0.24 -0.04    -0.248 N 
DOCKED: ATOM     29 FE   UNL d   1       2.584  -6.161  -2.983 -0.09 -0.00    +0.000 Fe
DOCKED: ENDROOT
DOCKED: BRANCH   6  30
DOCKED: ATOM     30  C   UNL d   1       1.161  -9.866  -6.855 -0.24 +0.01    +0.052 C 
DOCKED: BRANCH  30  31
DOCKED: ATOM     31  C   UNL d   1      -0.138  -9.497  -7.563 -0.18 +0.05    +0.115 C 
DOCKED: BRANCH  31  32
DOCKED: ATOM     32  C   UNL d   1       0.145  -8.982  -8.947 -0.15 +0.08    +0.139 C 
DOCKED: ATOM     33  O   UNL d   1       0.773  -9.659  -9.748 +0.02 -0.22    -0.650 OA
DOCKED: BRANCH  32  34
DOCKED: ATOM     34  O   UNL d   1      -0.290  -7.765  -9.316 -0.24 -0.95    -0.776 OA
DOCKED: ATOM     35  H   UNL d   1       0.302  -7.186  -9.816 +0.03 +0.18    +0.167 HD
DOCKED: ENDBRANCH  32  34
DOCKED: ENDBRANCH  31  32
DOCKED: ENDBRANCH  30  31
DOCKED: ENDBRANCH   6  30
DOCKED: BRANCH  22  36
DOCKED: ATOM     36  C   UNL d   1       3.200  -5.053  -8.469 -0.28 +0.01    +0.052 C 
DOCKED: BRANCH  36  37
DOCKED: ATOM     37  C   UNL d   1       1.838  -5.662  -8.767 -0.22 +0.06    +0.115 C 
DOCKED: BRANCH  37  38
DOCKED: ATOM     38  C   UNL d   1       0.957  -4.684  -9.492 -0.27 +0.11    +0.139 C 
DOCKED: ATOM     39  O   UNL d   1       1.032  -3.486  -9.263 -0.05 -0.36    -0.650 OA
DOCKED: BRANCH  38  40
DOCKED: ATOM     40  O   UNL d   1       0.073  -5.126 -10.404 -0.30 -1.06    -0.776 OA
DOCKED: ATOM     41  H   UNL d   1       0.069  -6.064 -10.640 +0.03 +0.22    +0.167 HD
DOCKED: ENDBRANCH  38  40
DOCKED: ENDBRANCH  37  38
DOCKED: ENDBRANCH  36  37
DOCKED: ENDBRANCH  22  36
DOCKED: BRANCH  12  42
DOCKED: ATOM     42  C   UNL d   1       1.019  -6.715   2.427 -0.51 +0.00    +0.004 C 
DOCKED: ATOM     43  C   UNL d   1       2.021  -6.252   3.185 -0.55 +0.00    +0.012 C 
DOCKED: ENDBRANCH  12  42
DOCKED: BRANCH  17  44
DOCKED: ATOM     44  C   UNL d   1       5.735  -1.751  -1.672 -0.64 +0.00    +0.004 C 
DOCKED: ATOM     45  C   UNL d   1       5.310  -0.483  -1.662 -0.68 +0.00    +0.012 C 
DOCKED: ENDBRANCH  17  44
DOCKED: TORSDOF 10
DOCKED: TER
DOCKED: ENDMDL
________________________________________________________________________________


	BEGINNING GENETIC ALGORITHM DOCKING 76 of 100
Run: 76 Seed: 841500215 419229941 [ Run 76 of 100 GA/GALS ]
Beginning LAMARCKIAN GENETIC ALGORITHM (LGA), with a maximum of 25000000 energy evaluations.

Final-Value: -14.376


	FINAL GENETIC ALGORITHM DOCKED STATE
	_______________________________________________


Detailed state:  trans 2.329 -5.639 -1.959 quatxyzw 0.034058 0.625248 -0.413590 -0.660945 center -0.174 -0.001 -0.047 ntor 10 23.3425 -37.0350 72.0120 -173.8776 150.7468 129.2569 -4.8455 145.6075 -177.7708 21.2433
State:	  2.329  -5.639  -1.959   0.045  0.833 -0.551 -97.256     23.34  -37.03   72.01 -173.88  150.75  129.26   -4.85  145.61 -177.77   21.24

DOCKED: MODEL       76
DOCKED: USER    Run = 76
DOCKED: USER    DPF = D:/Protein_go_brrr/autodock/final/1A3N/heme_Fe/dock.dpf
DOCKED: USER  
DOCKED: USER    Estimated Free Energy of Binding    =  -10.77 kcal/mol  [=(1)+(2)+(3)-(4)]
DOCKED: USER    Estimated Inhibition Constant, Ki   =   12.79 nM (nanomolar)  [Temperature = 298.15 K]
DOCKED: USER    
DOCKED: USER    (1) Final Intermolecular Energy     =  -13.75 kcal/mol
DOCKED: USER        vdW + Hbond + desolv Energy     =  -13.68 kcal/mol
DOCKED: USER        Electrostatic Energy            =   -0.07 kcal/mol
DOCKED: USER    (2) Final Total Internal Energy     =   -0.62 kcal/mol
DOCKED: USER    (3) Torsional Free Energy           =   +2.98 kcal/mol
DOCKED: USER    (4) Unbound System's Energy  [=(2)] =   -0.62 kcal/mol
DOCKED: USER    
DOCKED: USER    
DOCKED: USER    NEWDPF move heme_Fe_opt.pdbqt
DOCKED: USER    NEWDPF about -0.174000 -0.001000 -0.047000
DOCKED: USER    NEWDPF tran0 2.329437 -5.638581 -1.959022
DOCKED: USER    NEWDPF quaternion0 0.034058 0.625248 -0.413590 -0.660945
DOCKED: USER    NEWDPF axisangle0 0.045385 0.833182 -0.551134 -97.256068
DOCKED: USER    NEWDPF quat0 0.045385 0.833182 -0.551134 -97.256068
DOCKED: USER    NEWDPF dihe0 23.34 -37.03 72.01 -173.88 150.75 129.26 -4.85 145.61 -177.77 21.24 
DOCKED: USER  keepresnum = 1 
DOCKED: USER  
DOCKED: REMARK  10 active torsions:
DOCKED: REMARK  status: ('A' for Active; 'I' for Inactive)
DOCKED: REMARK    1  A    between atoms: C_6  and  C_10 
DOCKED: REMARK    2  A    between atoms: C_10  and  C_11 
DOCKED: REMARK    3  A    between atoms: C_11  and  C_12 
DOCKED: REMARK    4  A    between atoms: C_12  and  O_14 
DOCKED: REMARK    5  A    between atoms: C_17  and  C_20 
DOCKED: REMARK    6  A    between atoms: C_24  and  C_27 
DOCKED: REMARK    7  A    between atoms: C_31  and  C_34 
DOCKED: REMARK    8  A    between atoms: C_34  and  C_35 
DOCKED: REMARK    9  A    between atoms: C_35  and  C_36 
DOCKED: REMARK   10  A    between atoms: C_36  and  O_38 
DOCKED: USER                              x       y       z     vdW  Elec       q    Type
DOCKED: USER                           _______ _______ _______ _____ _____    ______ ____
DOCKED: ROOT
DOCKED: ATOM      1  C   UNL d   1       2.965  -4.978  -0.123 -0.43 +0.00    +0.064 C 
DOCKED: ATOM      2  C   UNL d   1       0.398  -8.889  -1.716 -0.42 +0.00    +0.064 A 
DOCKED: ATOM      3  C   UNL d   1       1.844  -7.927  -6.194 -0.34 +0.02    +0.064 C 
DOCKED: ATOM      4  C   UNL d   1       4.249  -4.076  -4.688 -0.48 +0.01    +0.064 C 
DOCKED: ATOM      5  C   UNL d   1       2.041  -6.119  -0.168 -0.37 +0.00    +0.066 A 
DOCKED: ATOM      6  C   UNL d   1       1.339  -6.611   0.921 -0.32 -0.00    -0.021 A 
DOCKED: ATOM      7  C   UNL d   1       0.630  -7.700   0.478 -0.32 -0.00    -0.025 A 
DOCKED: ATOM      8  C   UNL d   1       0.925  -7.830  -0.865 -0.37 +0.00    +0.066 A 
DOCKED: ATOM      9  C   UNL d   1      -0.291  -8.548   1.301 -0.57 -0.00    +0.051 C 
DOCKED: ATOM     10  C   UNL d   1       0.621  -9.004  -3.027 -0.37 +0.01    +0.066 A 
DOCKED: ATOM     11  C   UNL d   1       0.197 -10.093  -3.793 -0.34 -0.00    -0.021 A 
DOCKED: ATOM     12  C   UNL d   1       0.616  -9.848  -5.085 -0.31 +0.00    +0.000 A 
DOCKED: ATOM     13  C   UNL d   1       1.288  -8.614  -5.039 -0.32 +0.01    +0.070 A 
DOCKED: ATOM     14  C   UNL d   1      -0.513 -11.339  -3.304 -0.10 +0.00    +0.052 C 
DOCKED: ATOM     15  C   UNL d   1       2.537  -6.765  -6.147 -0.27 +0.02    +0.066 A 
DOCKED: ATOM     16  C   UNL d   1       2.964  -6.091  -7.284 -0.28 -0.01    -0.021 A 
DOCKED: ATOM     17  C   UNL d   1       3.661  -4.981  -6.852 -0.36 +0.00    +0.000 A 
DOCKED: ATOM     18  C   UNL d   1       3.646  -5.008  -5.459 -0.37 +0.01    +0.070 A 
DOCKED: ATOM     19  C   UNL d   1       2.750  -6.484  -8.720 -0.23 +0.02    +0.052 C 
DOCKED: ATOM     20  C   UNL d   1       4.202  -4.038  -3.222 -0.39 +0.01    +0.066 A 
DOCKED: ATOM     21  C   UNL d   1       4.980  -3.203  -2.408 -0.45 -0.00    -0.025 A 
DOCKED: ATOM     22  C   UNL d   1       4.589  -3.467  -1.112 -0.45 -0.00    -0.021 A 
DOCKED: ATOM     23  C   UNL d   1       3.597  -4.452  -1.185 -0.37 +0.00    +0.066 A 
DOCKED: ATOM     24  C   UNL d   1       6.042  -2.209  -2.818 -0.37 +0.00    +0.051 C 
DOCKED: ATOM     25  N   UNL d   1       1.776  -6.861  -1.257 -0.24 -0.00    -0.248 N 
DOCKED: ATOM     26  N   UNL d   1       1.299  -8.104  -3.783 -0.23 -0.03    -0.248 N 
DOCKED: ATOM     27  N   UNL d   1       2.918  -6.080  -5.025 -0.24 -0.04    -0.248 N 
DOCKED: ATOM     28  N   UNL d   1       3.397  -4.828  -2.471 -0.23 -0.01    -0.248 N 
DOCKED: ATOM     29 FE   UNL d   1       2.349  -6.465  -3.128 -0.09 +0.00    +0.000 Fe
DOCKED: ENDROOT
DOCKED: BRANCH   6  30
DOCKED: ATOM     30  C   UNL d   1       1.326  -6.065   2.307 -0.39 +0.00    +0.052 C 
DOCKED: BRANCH  30  31
DOCKED: ATOM     31  C   UNL d   1       2.452  -6.671   3.138 -0.28 +0.01    +0.115 C 
DOCKED: BRANCH  31  32
DOCKED: ATOM     32  C   UNL d   1       2.506  -6.030   4.497 -0.54 +0.01    +0.139 C 
DOCKED: ATOM     33  O   UNL d   1       2.913  -6.657   5.465 -0.11 -0.05    -0.650 OA
DOCKED: BRANCH  32  34
DOCKED: ATOM     34  O   UNL d   1       2.105  -4.758   4.660 +0.07 +0.01    -0.776 OA
DOCKED: ATOM     35  H   UNL d   1       2.443  -4.252   5.412 -0.46 -0.04    +0.167 HD
DOCKED: ENDBRANCH  32  34
DOCKED: ENDBRANCH  31  32
DOCKED: ENDBRANCH  30  31
DOCKED: ENDBRANCH   6  30
DOCKED: BRANCH  22  36
DOCKED: ATOM     36  C   UNL d   1       5.172  -2.842   0.128 -0.41 +0.01    +0.052 C 
DOCKED: BRANCH  36  37
DOCKED: ATOM     37  C   UNL d   1       4.093  -2.067   0.869 -0.53 +0.00    +0.115 C 
DOCKED: BRANCH  37  38
DOCKED: ATOM     38  C   UNL d   1       3.135  -1.424  -0.094 -0.34 +0.00    +0.139 C 
DOCKED: ATOM     39  O   UNL d   1       1.928  -1.570   0.033 +0.01 -0.03    -0.650 OA
DOCKED: BRANCH  38  40
DOCKED: ATOM     40  O   UNL d   1       3.604  -0.681  -1.112 +0.14 -0.01    -0.776 OA
DOCKED: ATOM     41  H   UNL d   1       3.156  -0.721  -1.969 +0.13 +0.01    +0.167 HD
DOCKED: ENDBRANCH  38  40
DOCKED: ENDBRANCH  37  38
DOCKED: ENDBRANCH  36  37
DOCKED: ENDBRANCH  22  36
DOCKED: BRANCH  12  42
DOCKED: ATOM     42  C   UNL d   1       0.387 -10.761  -6.247 -0.25 +0.00    +0.004 C 
DOCKED: ATOM     43  C   UNL d   1      -0.307 -10.354  -7.318 -0.20 +0.00    +0.012 C 
DOCKED: ENDBRANCH  12  42
DOCKED: BRANCH  17  44
DOCKED: ATOM     44  C   UNL d   1       4.284  -3.952  -7.715 -0.42 +0.00    +0.004 C 
DOCKED: ATOM     45  C   UNL d   1       5.599  -3.719  -7.663 -0.48 +0.00    +0.012 C 
DOCKED: ENDBRANCH  17  44
DOCKED: TORSDOF 10
DOCKED: TER
DOCKED: ENDMDL
________________________________________________________________________________


	BEGINNING GENETIC ALGORITHM DOCKING 77 of 100
Run: 77 Seed: 312235116 1357729426 [ Run 77 of 100 GA/GALS ]
Beginning LAMARCKIAN GENETIC ALGORITHM (LGA), with a maximum of 25000000 energy evaluations.

Final-Value: -17.893


	FINAL GENETIC ALGORITHM DOCKED STATE
	_______________________________________________


Detailed state:  trans 1.752 -6.823 -4.574 quatxyzw 0.712327 -0.050738 0.609472 -0.344325 center -0.174 -0.001 -0.047 ntor 10 -114.4567 -17.8900 68.8639 -134.4139 170.7276 0.0686 59.6506 -74.5122 30.5156 5.2954
State:	  1.752  -6.823  -4.574   0.759 -0.054  0.649 -139.719   -114.46  -17.89   68.86 -134.41  170.73    0.07   59.65  -74.51   30.52    5.30

DOCKED: MODEL       77
DOCKED: USER    Run = 77
DOCKED: USER    DPF = D:/Protein_go_brrr/autodock/final/1A3N/heme_Fe/dock.dpf
DOCKED: USER  
DOCKED: USER    Estimated Free Energy of Binding    =  -12.99 kcal/mol  [=(1)+(2)+(3)-(4)]
DOCKED: USER    Estimated Inhibition Constant, Ki   =  301.42 pM (picomolar)  [Temperature = 298.15 K]
DOCKED: USER    
DOCKED: USER    (1) Final Intermolecular Energy     =  -15.97 kcal/mol
DOCKED: USER        vdW + Hbond + desolv Energy     =  -13.92 kcal/mol
DOCKED: USER        Electrostatic Energy            =   -2.05 kcal/mol
DOCKED: USER    (2) Final Total Internal Energy     =   -1.92 kcal/mol
DOCKED: USER    (3) Torsional Free Energy           =   +2.98 kcal/mol
DOCKED: USER    (4) Unbound System's Energy  [=(2)] =   -1.92 kcal/mol
DOCKED: USER    
DOCKED: USER    
DOCKED: USER    NEWDPF move heme_Fe_opt.pdbqt
DOCKED: USER    NEWDPF about -0.174000 -0.001000 -0.047000
DOCKED: USER    NEWDPF tran0 1.752117 -6.822531 -4.574168
DOCKED: USER    NEWDPF quaternion0 0.712327 -0.050738 0.609472 -0.344325
DOCKED: USER    NEWDPF axisangle0 0.758723 -0.054043 0.649168 -139.718818
DOCKED: USER    NEWDPF quat0 0.758723 -0.054043 0.649168 -139.718818
DOCKED: USER    NEWDPF dihe0 -114.46 -17.89 68.86 -134.41 170.73 0.07 59.65 -74.51 30.52 5.30 
DOCKED: USER  keepresnum = 1 
DOCKED: USER  
DOCKED: REMARK  10 active torsions:
DOCKED: REMARK  status: ('A' for Active; 'I' for Inactive)
DOCKED: REMARK    1  A    between atoms: C_6  and  C_10 
DOCKED: REMARK    2  A    between atoms: C_10  and  C_11 
DOCKED: REMARK    3  A    between atoms: C_11  and  C_12 
DOCKED: REMARK    4  A    between atoms: C_12  and  O_14 
DOCKED: REMARK    5  A    between atoms: C_17  and  C_20 
DOCKED: REMARK    6  A    between atoms: C_24  and  C_27 
DOCKED: REMARK    7  A    between atoms: C_31  and  C_34 
DOCKED: REMARK    8  A    between atoms: C_34  and  C_35 
DOCKED: REMARK    9  A    between atoms: C_35  and  C_36 
DOCKED: REMARK   10  A    between atoms: C_36  and  O_38 
DOCKED: USER                              x       y       z     vdW  Elec       q    Type
DOCKED: USER                           _______ _______ _______ _____ _____    ______ ____
DOCKED: ROOT
DOCKED: ATOM      1  C   UNL d   1       1.725  -7.760  -6.399 -0.32 +0.02    +0.064 C 
DOCKED: ATOM      2  C   UNL d   1       4.120  -3.865  -4.522 -0.42 +0.01    +0.064 A 
DOCKED: ATOM      3  C   UNL d   1       2.853  -5.296  -0.116 -0.42 +0.00    +0.064 C 
DOCKED: ATOM      4  C   UNL d   1       0.441  -9.014  -1.919 -0.47 +0.00    +0.064 C 
DOCKED: ATOM      5  C   UNL d   1       2.446  -6.485  -6.285 -0.21 +0.02    +0.066 A 
DOCKED: ATOM      6  C   UNL d   1       2.871  -5.718  -7.357 -0.26 -0.01    -0.021 A 
DOCKED: ATOM      7  C   UNL d   1       3.540  -4.638  -6.835 -0.36 -0.00    -0.025 A 
DOCKED: ATOM      8  C   UNL d   1       3.496  -4.787  -5.463 -0.35 +0.01    +0.066 A 
DOCKED: ATOM      9  C   UNL d   1       4.163  -3.523  -7.617 -0.43 +0.00    +0.051 C 
DOCKED: ATOM     10  C   UNL d   1       4.044  -3.954  -3.193 -0.39 +0.01    +0.066 A 
DOCKED: ATOM     11  C   UNL d   1       4.747  -3.121  -2.319 -0.45 -0.00    -0.021 A 
DOCKED: ATOM     12  C   UNL d   1       4.411  -3.525  -1.042 -0.46 +0.00    +0.000 A 
DOCKED: ATOM     13  C   UNL d   1       3.519  -4.599  -1.205 -0.36 +0.00    +0.070 A 
DOCKED: ATOM     14  C   UNL d   1       5.742  -2.039  -2.682 -0.55 +0.00    +0.052 C 
DOCKED: ATOM     15  C   UNL d   1       2.034  -6.364  -0.266 -0.37 +0.00    +0.066 A 
DOCKED: ATOM     16  C   UNL d   1       1.338  -6.939   0.790 -0.36 -0.00    -0.021 A 
DOCKED: ATOM     17  C   UNL d   1       0.644  -8.014   0.273 -0.43 +0.00    +0.000 A 
DOCKED: ATOM     18  C   UNL d   1       0.937  -8.071  -1.088 -0.38 +0.00    +0.070 A 
DOCKED: ATOM     19  C   UNL d   1       1.342  -6.514   2.234 -0.46 +0.00    +0.052 C 
DOCKED: ATOM     20  C   UNL d   1       0.678  -9.070  -3.366 -0.36 +0.01    +0.066 A 
DOCKED: ATOM     21  C   UNL d   1       0.340 -10.143  -4.201 -0.31 -0.00    -0.025 A 
DOCKED: ATOM     22  C   UNL d   1       0.703  -9.759  -5.476 -0.29 -0.00    -0.021 A 
DOCKED: ATOM     23  C   UNL d   1       1.252  -8.476  -5.367 -0.31 +0.01    +0.066 A 
DOCKED: ATOM     24  C   UNL d   1      -0.288 -11.467  -3.830 -0.09 +0.00    +0.051 C 
DOCKED: ATOM     25  N   UNL d   1       2.822  -5.907  -5.131 -0.19 -0.06    -0.248 N 
DOCKED: ATOM     26  N   UNL d   1       3.302  -4.867  -2.516 -0.24 -0.01    -0.248 N 
DOCKED: ATOM     27  N   UNL d   1       1.756  -7.031  -1.428 -0.24 -0.00    -0.248 N 
DOCKED: ATOM     28  N   UNL d   1       1.275  -8.079  -4.072 -0.23 -0.03    -0.248 N 
DOCKED: ATOM     29 FE   UNL d   1       2.287  -6.474  -3.293 -0.09 +0.00    +0.000 Fe
DOCKED: ENDROOT
DOCKED: BRANCH   6  30
DOCKED: ATOM     30  C   UNL d   1       2.638  -5.984  -8.805 -0.24 +0.02    +0.052 C 
DOCKED: BRANCH  30  31
DOCKED: ATOM     31  C   UNL d   1       1.858  -4.840  -9.446 -0.25 +0.06    +0.115 C 
DOCKED: BRANCH  31  32
DOCKED: ATOM     32  C   UNL d   1       0.563  -5.343 -10.020 -0.08 +0.16    +0.139 C 
DOCKED: ATOM     33  O   UNL d   1      -0.284  -4.560 -10.426 -0.21 -0.91    -0.650 OA
DOCKED: BRANCH  32  34
DOCKED: ATOM     34  O   UNL d   1       0.325  -6.664 -10.092 -0.52 -0.94    -0.776 OA
DOCKED: ATOM     35  H   UNL d   1       0.236  -7.170  -9.272 +0.03 +0.20    +0.167 HD
DOCKED: ENDBRANCH  32  34
DOCKED: ENDBRANCH  31  32
DOCKED: ENDBRANCH  30  31
DOCKED: ENDBRANCH   6  30
DOCKED: BRANCH  22  36
DOCKED: ATOM     36  C   UNL d   1       0.574 -10.600  -6.718 -0.22 +0.01    +0.052 C 
DOCKED: BRANCH  36  37
DOCKED: ATOM     37  C   UNL d   1      -0.635 -10.146  -7.523 -0.16 +0.04    +0.115 C 
DOCKED: BRANCH  37  38
DOCKED: ATOM     38  C   UNL d   1      -0.213  -9.354  -8.728 -0.14 +0.07    +0.139 C 
DOCKED: ATOM     39  O   UNL d   1       0.969  -9.148  -8.958 +0.01 -0.26    -0.650 OA
DOCKED: BRANCH  38  40
DOCKED: ATOM     40  O   UNL d   1      -1.143  -8.860  -9.565 +0.05 -0.67    -0.776 OA
DOCKED: ATOM     41  H   UNL d   1      -0.898  -8.147 -10.171 +0.02 +0.19    +0.167 HD
DOCKED: ENDBRANCH  38  40
DOCKED: ENDBRANCH  37  38
DOCKED: ENDBRANCH  36  37
DOCKED: ENDBRANCH  22  36
DOCKED: BRANCH  12  42
DOCKED: ATOM     42  C   UNL d   1       4.943  -2.914   0.216 -0.50 +0.00    +0.004 C 
DOCKED: ATOM     43  C   UNL d   1       4.126  -2.298   1.081 -0.60 +0.00    +0.012 C 
DOCKED: ENDBRANCH  12  42
DOCKED: BRANCH  17  44
DOCKED: ATOM     44  C   UNL d   1      -0.256  -8.915   1.028 -0.64 -0.00    +0.004 C 
DOCKED: ATOM     45  C   UNL d   1       0.237  -9.913   1.768 -0.68 -0.00    +0.012 C 
DOCKED: ENDBRANCH  17  44
DOCKED: TORSDOF 10
DOCKED: TER
DOCKED: ENDMDL
________________________________________________________________________________


	BEGINNING GENETIC ALGORITHM DOCKING 78 of 100
Run: 78 Seed: 703972971 1887926621 [ Run 78 of 100 GA/GALS ]
Beginning LAMARCKIAN GENETIC ALGORITHM (LGA), with a maximum of 25000000 energy evaluations.

Final-Value: -18.137


	FINAL GENETIC ALGORITHM DOCKED STATE
	_______________________________________________


Detailed state:  trans 23.667 7.707 -4.488 quatxyzw -0.700674 0.282379 -0.619995 0.211953 center -0.174 -0.001 -0.047 ntor 10 -119.4099 69.2369 75.6735 -154.0827 -131.1398 -84.8675 30.8103 68.3208 -41.0978 164.0779
State:	 23.667   7.707  -4.488  -0.717  0.289 -0.634 155.526   -119.41   69.24   75.67 -154.08 -131.14  -84.87   30.81   68.32  -41.10  164.08

DOCKED: MODEL       78
DOCKED: USER    Run = 78
DOCKED: USER    DPF = D:/Protein_go_brrr/autodock/final/1A3N/heme_Fe/dock.dpf
DOCKED: USER  
DOCKED: USER    Estimated Free Energy of Binding    =  -13.10 kcal/mol  [=(1)+(2)+(3)-(4)]
DOCKED: USER    Estimated Inhibition Constant, Ki   =  249.22 pM (picomolar)  [Temperature = 298.15 K]
DOCKED: USER    
DOCKED: USER    (1) Final Intermolecular Energy     =  -16.08 kcal/mol
DOCKED: USER        vdW + Hbond + desolv Energy     =  -13.06 kcal/mol
DOCKED: USER        Electrostatic Energy            =   -3.02 kcal/mol
DOCKED: USER    (2) Final Total Internal Energy     =   -2.05 kcal/mol
DOCKED: USER    (3) Torsional Free Energy           =   +2.98 kcal/mol
DOCKED: USER    (4) Unbound System's Energy  [=(2)] =   -2.05 kcal/mol
DOCKED: USER    
DOCKED: USER    
DOCKED: USER    NEWDPF move heme_Fe_opt.pdbqt
DOCKED: USER    NEWDPF about -0.174000 -0.001000 -0.047000
DOCKED: USER    NEWDPF tran0 23.667145 7.707378 -4.487914
DOCKED: USER    NEWDPF quaternion0 -0.700674 0.282379 -0.619995 0.211953
DOCKED: USER    NEWDPF axisangle0 -0.716963 0.288944 -0.634409 155.526288
DOCKED: USER    NEWDPF quat0 -0.716963 0.288944 -0.634409 155.526288
DOCKED: USER    NEWDPF dihe0 -119.41 69.24 75.67 -154.08 -131.14 -84.87 30.81 68.32 -41.10 164.08 
DOCKED: USER  keepresnum = 1 
DOCKED: USER  
DOCKED: REMARK  10 active torsions:
DOCKED: REMARK  status: ('A' for Active; 'I' for Inactive)
DOCKED: REMARK    1  A    between atoms: C_6  and  C_10 
DOCKED: REMARK    2  A    between atoms: C_10  and  C_11 
DOCKED: REMARK    3  A    between atoms: C_11  and  C_12 
DOCKED: REMARK    4  A    between atoms: C_12  and  O_14 
DOCKED: REMARK    5  A    between atoms: C_17  and  C_20 
DOCKED: REMARK    6  A    between atoms: C_24  and  C_27 
DOCKED: REMARK    7  A    between atoms: C_31  and  C_34 
DOCKED: REMARK    8  A    between atoms: C_34  and  C_35 
DOCKED: REMARK    9  A    between atoms: C_35  and  C_36 
DOCKED: REMARK   10  A    between atoms: C_36  and  O_38 
DOCKED: USER                              x       y       z     vdW  Elec       q    Type
DOCKED: USER                           _______ _______ _______ _____ _____    ______ ____
DOCKED: ROOT
DOCKED: ATOM      1  C   UNL d   1      23.962   7.671  -6.518 -0.27 +0.02    +0.064 C 
DOCKED: ATOM      2  C   UNL d   1      26.269   9.807  -2.704 -0.42 +0.01    +0.064 A 
DOCKED: ATOM      3  C   UNL d   1      23.862   6.915   0.281 -0.37 +0.00    +0.064 C 
DOCKED: ATOM      4  C   UNL d   1      21.542   4.906  -3.388 -0.44 +0.01    +0.064 C 
DOCKED: ATOM      5  C   UNL d   1      24.773   8.597  -5.716 -0.33 +0.02    +0.066 A 
DOCKED: ATOM      6  C   UNL d   1      25.517   9.646  -6.231 -0.34 -0.01    -0.021 A 
DOCKED: ATOM      7  C   UNL d   1      26.161  10.236  -5.172 -0.37 -0.00    -0.025 A 
DOCKED: ATOM      8  C   UNL d   1      25.783   9.525  -4.049 -0.41 +0.01    +0.066 A 
DOCKED: ATOM      9  C   UNL d   1      27.068  11.426  -5.241 -0.38 +0.01    +0.051 C 
DOCKED: ATOM     10  C   UNL d   1      25.877   9.173  -1.597 -0.42 +0.01    +0.066 A 
DOCKED: ATOM     11  C   UNL d   1      26.444   9.388  -0.339 -0.46 -0.00    -0.021 A 
DOCKED: ATOM     12  C   UNL d   1      25.779   8.554   0.537 -0.41 +0.00    +0.000 A 
DOCKED: ATOM     13  C   UNL d   1      24.836   7.860  -0.242 -0.34 +0.00    +0.070 A 
DOCKED: ATOM     14  C   UNL d   1      27.610  10.294   0.001 -0.56 -0.00    +0.052 C 
DOCKED: ATOM     15  C   UNL d   1      22.988   6.206  -0.471 -0.34 +0.00    +0.066 A 
DOCKED: ATOM     16  C   UNL d   1      22.007   5.388   0.075 -0.42 -0.00    -0.021 A 
DOCKED: ATOM     17  C   UNL d   1      21.338   4.805  -0.981 -0.43 +0.00    +0.000 A 
DOCKED: ATOM     18  C   UNL d   1      21.931   5.279  -2.149 -0.35 +0.00    +0.070 A 
DOCKED: ATOM     19  C   UNL d   1      21.723   5.143   1.533 -0.55 +0.00    +0.052 C 
DOCKED: ATOM     20  C   UNL d   1      22.101   5.430  -4.640 -0.36 +0.01    +0.066 A 
DOCKED: ATOM     21  C   UNL d   1      21.850   4.912  -5.918 -0.36 -0.00    -0.025 A 
DOCKED: ATOM     22  C   UNL d   1      22.540   5.723  -6.796 -0.24 -0.01    -0.021 A 
DOCKED: ATOM     23  C   UNL d   1      23.186   6.694  -6.023 +0.12 +0.02    +0.066 A 
DOCKED: ATOM     24  C   UNL d   1      21.011   3.716  -6.304 -0.47 +0.01    +0.051 C 
DOCKED: ATOM     25  N   UNL d   1      24.931   8.534  -4.382 -0.25 -0.04    -0.248 N 
DOCKED: ATOM     26  N   UNL d   1      24.902   8.231  -1.544 -0.24 -0.02    -0.248 N 
DOCKED: ATOM     27  N   UNL d   1      22.917   6.173  -1.838 -0.21 -0.01    -0.248 N 
DOCKED: ATOM     28  N   UNL d   1      22.951   6.484  -4.705 -0.16 -0.04    -0.248 N 
DOCKED: ATOM     29 FE   UNL d   1      23.925   7.356  -3.125 -0.08 +0.00    +0.000 Fe
DOCKED: ENDROOT
DOCKED: BRANCH   6  30
DOCKED: ATOM     30  C   UNL d   1      25.599  10.080  -7.654 -0.29 +0.03    +0.052 C 
DOCKED: BRANCH  30  31
DOCKED: ATOM     31  C   UNL d   1      24.206  10.201  -8.263 -0.18 +0.06    +0.115 C 
DOCKED: BRANCH  31  32
DOCKED: ATOM     32  C   UNL d   1      24.246   9.892  -9.734 -0.17 +0.11    +0.139 C 
DOCKED: ATOM     33  O   UNL d   1      23.714  10.640 -10.542 -0.00 -0.37    -0.650 OA
DOCKED: BRANCH  32  34
DOCKED: ATOM     34  O   UNL d   1      24.869   8.787 -10.175 +0.21 -1.43    -0.776 OA
DOCKED: ATOM     35  H   UNL d   1      24.558   7.921  -9.875 +0.04 +0.30    +0.167 HD
DOCKED: ENDBRANCH  32  34
DOCKED: ENDBRANCH  31  32
DOCKED: ENDBRANCH  30  31
DOCKED: ENDBRANCH   6  30
DOCKED: BRANCH  22  36
DOCKED: ATOM     36  C   UNL d   1      22.611   5.542  -8.290 -0.30 +0.02    +0.052 C 
DOCKED: BRANCH  36  37
DOCKED: ATOM     37  C   UNL d   1      23.912   4.845  -8.660 -0.25 +0.05    +0.115 C 
DOCKED: BRANCH  37  38
DOCKED: ATOM     38  C   UNL d   1      24.820   5.768  -9.422 -0.16 +0.16    +0.139 C 
DOCKED: ATOM     39  O   UNL d   1      24.707   5.900 -10.631 -0.01 -0.96    -0.650 OA
DOCKED: BRANCH  38  40
DOCKED: ATOM     40  O   UNL d   1      25.773   6.459  -8.771 -0.43 -1.32    -0.776 OA
DOCKED: ATOM     41  H   UNL d   1      25.687   7.419  -8.691 +0.05 +0.33    +0.167 HD
DOCKED: ENDBRANCH  38  40
DOCKED: ENDBRANCH  37  38
DOCKED: ENDBRANCH  36  37
DOCKED: ENDBRANCH  22  36
DOCKED: BRANCH  12  42
DOCKED: ATOM     42  C   UNL d   1      26.067   8.444   2.000 -0.52 +0.00    +0.004 C 
DOCKED: ATOM     43  C   UNL d   1      25.105   8.651   2.909 -0.56 -0.00    +0.012 C 
DOCKED: ENDBRANCH  12  42
DOCKED: BRANCH  17  44
DOCKED: ATOM     44  C   UNL d   1      20.194   3.872  -0.880 -0.06 +0.00    +0.004 C 
DOCKED: ATOM     45  C   UNL d   1      20.372   2.553  -1.008 -0.57 +0.00    +0.012 C 
DOCKED: ENDBRANCH  17  44
DOCKED: TORSDOF 10
DOCKED: TER
DOCKED: ENDMDL
________________________________________________________________________________


	BEGINNING GENETIC ALGORITHM DOCKING 79 of 100
Run: 79 Seed: 2089014811 1058081538 [ Run 79 of 100 GA/GALS ]
Beginning LAMARCKIAN GENETIC ALGORITHM (LGA), with a maximum of 25000000 energy evaluations.

Final-Value: -16.818


	FINAL GENETIC ALGORITHM DOCKED STATE
	_______________________________________________


Detailed state:  trans 1.763 -6.627 -4.914 quatxyzw -0.724554 0.070597 -0.604613 0.323236 center -0.174 -0.001 -0.047 ntor 10 72.1704 -50.5274 77.2687 -121.7718 -92.4917 -180.0000 31.8841 70.9669 9.4097 139.4812
State:	  1.763  -6.627  -4.914  -0.766  0.075 -0.639 142.283     72.17  -50.53   77.27 -121.77  -92.49 -180.00   31.88   70.97    9.41  139.48

DOCKED: MODEL       79
DOCKED: USER    Run = 79
DOCKED: USER    DPF = D:/Protein_go_brrr/autodock/final/1A3N/heme_Fe/dock.dpf
DOCKED: USER  
DOCKED: USER    Estimated Free Energy of Binding    =  -12.22 kcal/mol  [=(1)+(2)+(3)-(4)]
DOCKED: USER    Estimated Inhibition Constant, Ki   =    1.10 nM (nanomolar)  [Temperature = 298.15 K]
DOCKED: USER    
DOCKED: USER    (1) Final Intermolecular Energy     =  -15.21 kcal/mol
DOCKED: USER        vdW + Hbond + desolv Energy     =  -13.51 kcal/mol
DOCKED: USER        Electrostatic Energy            =   -1.70 kcal/mol
DOCKED: USER    (2) Final Total Internal Energy     =   -1.61 kcal/mol
DOCKED: USER    (3) Torsional Free Energy           =   +2.98 kcal/mol
DOCKED: USER    (4) Unbound System's Energy  [=(2)] =   -1.61 kcal/mol
DOCKED: USER    
DOCKED: USER    
DOCKED: USER    NEWDPF move heme_Fe_opt.pdbqt
DOCKED: USER    NEWDPF about -0.174000 -0.001000 -0.047000
DOCKED: USER    NEWDPF tran0 1.763045 -6.627308 -4.914064
DOCKED: USER    NEWDPF quaternion0 -0.724554 0.070597 -0.604613 0.323236
DOCKED: USER    NEWDPF axisangle0 -0.765656 0.074601 -0.638910 142.282553
DOCKED: USER    NEWDPF quat0 -0.765656 0.074601 -0.638910 142.282553
DOCKED: USER    NEWDPF dihe0 72.17 -50.53 77.27 -121.77 -92.49 -180.00 31.88 70.97 9.41 139.48 
DOCKED: USER  keepresnum = 1 
DOCKED: USER  
DOCKED: REMARK  10 active torsions:
DOCKED: REMARK  status: ('A' for Active; 'I' for Inactive)
DOCKED: REMARK    1  A    between atoms: C_6  and  C_10 
DOCKED: REMARK    2  A    between atoms: C_10  and  C_11 
DOCKED: REMARK    3  A    between atoms: C_11  and  C_12 
DOCKED: REMARK    4  A    between atoms: C_12  and  O_14 
DOCKED: REMARK    5  A    between atoms: C_17  and  C_20 
DOCKED: REMARK    6  A    between atoms: C_24  and  C_27 
DOCKED: REMARK    7  A    between atoms: C_31  and  C_34 
DOCKED: REMARK    8  A    between atoms: C_34  and  C_35 
DOCKED: REMARK    9  A    between atoms: C_35  and  C_36 
DOCKED: REMARK   10  A    between atoms: C_36  and  O_38 
DOCKED: USER                              x       y       z     vdW  Elec       q    Type
DOCKED: USER                           _______ _______ _______ _____ _____    ______ ____
DOCKED: ROOT
DOCKED: ATOM      1  C   UNL d   1       1.721  -7.447  -6.795 -0.22 +0.02    +0.064 C 
DOCKED: ATOM      2  C   UNL d   1       4.145  -3.689  -4.690 -0.42 +0.01    +0.064 A 
DOCKED: ATOM      3  C   UNL d   1       2.897  -5.390  -0.376 -0.43 +0.00    +0.064 C 
DOCKED: ATOM      4  C   UNL d   1       0.457  -8.976  -2.394 -0.46 +0.00    +0.064 C 
DOCKED: ATOM      5  C   UNL d   1       2.449  -6.185  -6.604 -0.14 +0.02    +0.066 A 
DOCKED: ATOM      6  C   UNL d   1       2.871  -5.354  -7.629 -0.28 -0.01    -0.021 A 
DOCKED: ATOM      7  C   UNL d   1       3.548  -4.312  -7.044 -0.37 -0.00    -0.025 A 
DOCKED: ATOM      8  C   UNL d   1       3.512  -4.548  -5.683 -0.36 +0.01    +0.066 A 
DOCKED: ATOM      9  C   UNL d   1       4.172  -3.153  -7.758 -0.42 +0.00    +0.051 C 
DOCKED: ATOM     10  C   UNL d   1       4.077  -3.862  -3.369 -0.40 +0.01    +0.066 A 
DOCKED: ATOM     11  C   UNL d   1       4.789  -3.090  -2.448 -0.46 -0.00    -0.021 A 
DOCKED: ATOM     12  C   UNL d   1       4.459  -3.571  -1.197 -0.46 +0.00    +0.000 A 
DOCKED: ATOM     13  C   UNL d   1       3.561  -4.629  -1.422 -0.36 +0.00    +0.070 A 
DOCKED: ATOM     14  C   UNL d   1       5.788  -1.991  -2.749 -0.52 +0.00    +0.052 C 
DOCKED: ATOM     15  C   UNL d   1       2.072  -6.443  -0.587 -0.37 +0.00    +0.066 A 
DOCKED: ATOM     16  C   UNL d   1       1.379  -7.081   0.434 -0.38 -0.00    -0.021 A 
DOCKED: ATOM     17  C   UNL d   1       0.678  -8.118  -0.145 -0.44 +0.00    +0.000 A 
DOCKED: ATOM     18  C   UNL d   1       0.962  -8.090  -1.508 -0.36 +0.00    +0.070 A 
DOCKED: ATOM     19  C   UNL d   1       1.395  -6.747   1.902 -0.45 +0.00    +0.052 C 
DOCKED: ATOM     20  C   UNL d   1       0.685  -8.941  -3.844 -0.35 +0.01    +0.066 A 
DOCKED: ATOM     21  C   UNL d   1       0.337  -9.959  -4.743 -0.30 -0.00    -0.025 A 
DOCKED: ATOM     22  C   UNL d   1       0.694  -9.497  -5.993 -0.27 -0.00    -0.021 A 
DOCKED: ATOM     23  C   UNL d   1       1.250  -8.225  -5.807 -0.30 +0.02    +0.066 A 
DOCKED: ATOM     24  C   UNL d   1      -0.296 -11.300  -4.452 -0.22 +0.00    +0.051 C 
DOCKED: ATOM     25  N   UNL d   1       2.834  -5.683  -5.418 -0.15 -0.06    -0.248 N 
DOCKED: ATOM     26  N   UNL d   1       3.334  -4.812  -2.746 -0.24 -0.02    -0.248 N 
DOCKED: ATOM     27  N   UNL d   1       1.785  -7.035  -1.788 -0.22 -0.00    -0.248 N 
DOCKED: ATOM     28  N   UNL d   1       1.282  -7.910  -4.489 -0.23 -0.04    -0.248 N 
DOCKED: ATOM     29 FE   UNL d   1       2.307  -6.363  -3.617 -0.08 +0.00    +0.000 Fe
DOCKED: ENDROOT
DOCKED: BRANCH   6  30
DOCKED: ATOM     30  C   UNL d   1       2.628  -5.527  -9.089 -0.23 +0.02    +0.052 C 
DOCKED: BRANCH  30  31
DOCKED: ATOM     31  C   UNL d   1       1.455  -4.667  -9.547 -0.27 +0.07    +0.115 C 
DOCKED: BRANCH  31  32
DOCKED: ATOM     32  C   UNL d   1       0.722  -5.335 -10.677 -0.16 +0.12    +0.139 C 
DOCKED: ATOM     33  O   UNL d   1       1.013  -5.091 -11.839 +0.03 -0.34    -0.650 OA
DOCKED: BRANCH  32  34
DOCKED: ATOM     34  O   UNL d   1      -0.265  -6.210 -10.417 -0.44 -1.42    -0.776 OA
DOCKED: ATOM     35  H   UNL d   1      -0.110  -7.152 -10.572 +0.02 +0.19    +0.167 HD
DOCKED: ENDBRANCH  32  34
DOCKED: ENDBRANCH  31  32
DOCKED: ENDBRANCH  30  31
DOCKED: ENDBRANCH   6  30
DOCKED: BRANCH  22  36
DOCKED: ATOM     36  C   UNL d   1       0.554 -10.257  -7.285 -0.20 +0.01    +0.052 C 
DOCKED: BRANCH  36  37
DOCKED: ATOM     37  C   UNL d   1       1.909 -10.358  -7.971 -0.13 +0.02    +0.115 C 
DOCKED: BRANCH  37  38
DOCKED: ATOM     38  C   UNL d   1       1.950  -9.508  -9.210 -0.13 +0.04    +0.139 C 
DOCKED: ATOM     39  O   UNL d   1       2.957  -9.456  -9.899 -0.00 -0.12    -0.650 OA
DOCKED: BRANCH  38  40
DOCKED: ATOM     40  O   UNL d   1       0.870  -8.791  -9.568 +0.04 -0.36    -0.776 OA
DOCKED: ATOM     41  H   UNL d   1       0.974  -7.850  -9.765 +0.04 +0.10    +0.167 HD
DOCKED: ENDBRANCH  38  40
DOCKED: ENDBRANCH  37  38
DOCKED: ENDBRANCH  36  37
DOCKED: ENDBRANCH  22  36
DOCKED: BRANCH  12  42
DOCKED: ATOM     42  C   UNL d   1       5.001  -3.043   0.093 -0.52 +0.00    +0.004 C 
DOCKED: ATOM     43  C   UNL d   1       4.179  -2.633   1.068 -0.61 +0.00    +0.012 C 
DOCKED: ENDBRANCH  12  42
DOCKED: BRANCH  17  44
DOCKED: ATOM     44  C   UNL d   1      -0.223  -9.060   0.557 -0.60 -0.00    +0.004 C 
DOCKED: ATOM     45  C   UNL d   1       0.262  -9.949   1.429 -0.67 -0.00    +0.012 C 
DOCKED: ENDBRANCH  17  44
DOCKED: TORSDOF 10
DOCKED: TER
DOCKED: ENDMDL
________________________________________________________________________________


	BEGINNING GENETIC ALGORITHM DOCKING 80 of 100
Run: 80 Seed: 1286586677 496082766 [ Run 80 of 100 GA/GALS ]
Beginning LAMARCKIAN GENETIC ALGORITHM (LGA), with a maximum of 25000000 energy evaluations.

Final-Value: -15.816


	FINAL GENETIC ALGORITHM DOCKED STATE
	_______________________________________________


Detailed state:  trans 23.387 -5.648 30.901 quatxyzw -0.480153 0.423077 -0.398428 -0.657050 center -0.174 -0.001 -0.047 ntor 10 89.6390 -63.4673 -111.6425 -127.7940 102.6372 -78.4311 65.9616 39.8001 -165.5689 -33.1776
State:	 23.387  -5.648  30.901  -0.637  0.561 -0.529 -97.849     89.64  -63.47 -111.64 -127.79  102.64  -78.43   65.96   39.80 -165.57  -33.18

DOCKED: MODEL       80
DOCKED: USER    Run = 80
DOCKED: USER    DPF = D:/Protein_go_brrr/autodock/final/1A3N/heme_Fe/dock.dpf
DOCKED: USER  
DOCKED: USER    Estimated Free Energy of Binding    =  -12.21 kcal/mol  [=(1)+(2)+(3)-(4)]
DOCKED: USER    Estimated Inhibition Constant, Ki   =    1.12 nM (nanomolar)  [Temperature = 298.15 K]
DOCKED: USER    
DOCKED: USER    (1) Final Intermolecular Energy     =  -15.20 kcal/mol
DOCKED: USER        vdW + Hbond + desolv Energy     =  -15.20 kcal/mol
DOCKED: USER        Electrostatic Energy            =   +0.01 kcal/mol
DOCKED: USER    (2) Final Total Internal Energy     =   -0.62 kcal/mol
DOCKED: USER    (3) Torsional Free Energy           =   +2.98 kcal/mol
DOCKED: USER    (4) Unbound System's Energy  [=(2)] =   -0.62 kcal/mol
DOCKED: USER    
DOCKED: USER    
DOCKED: USER    NEWDPF move heme_Fe_opt.pdbqt
DOCKED: USER    NEWDPF about -0.174000 -0.001000 -0.047000
DOCKED: USER    NEWDPF tran0 23.386992 -5.647886 30.900686
DOCKED: USER    NEWDPF quaternion0 -0.480153 0.423077 -0.398428 -0.657050
DOCKED: USER    NEWDPF axisangle0 -0.636936 0.561224 -0.528526 -97.849478
DOCKED: USER    NEWDPF quat0 -0.636936 0.561224 -0.528526 -97.849478
DOCKED: USER    NEWDPF dihe0 89.64 -63.47 -111.64 -127.79 102.64 -78.43 65.96 39.80 -165.57 -33.18 
DOCKED: USER  keepresnum = 1 
DOCKED: USER  
DOCKED: REMARK  10 active torsions:
DOCKED: REMARK  status: ('A' for Active; 'I' for Inactive)
DOCKED: REMARK    1  A    between atoms: C_6  and  C_10 
DOCKED: REMARK    2  A    between atoms: C_10  and  C_11 
DOCKED: REMARK    3  A    between atoms: C_11  and  C_12 
DOCKED: REMARK    4  A    between atoms: C_12  and  O_14 
DOCKED: REMARK    5  A    between atoms: C_17  and  C_20 
DOCKED: REMARK    6  A    between atoms: C_24  and  C_27 
DOCKED: REMARK    7  A    between atoms: C_31  and  C_34 
DOCKED: REMARK    8  A    between atoms: C_34  and  C_35 
DOCKED: REMARK    9  A    between atoms: C_35  and  C_36 
DOCKED: REMARK   10  A    between atoms: C_36  and  O_38 
DOCKED: USER                              x       y       z     vdW  Elec       q    Type
DOCKED: USER                           _______ _______ _______ _____ _____    ______ ____
DOCKED: ROOT
DOCKED: ATOM      1  C   UNL d   1      23.237  -3.663  31.397 -0.46 +0.01    +0.064 C 
DOCKED: ATOM      2  C   UNL d   1      23.850  -7.852  33.948 -0.30 +0.01    +0.064 A 
DOCKED: ATOM      3  C   UNL d   1      24.967 -10.100  29.854 -0.50 +0.00    +0.064 C 
DOCKED: ATOM      4  C   UNL d   1      24.276  -6.082  27.352 -0.43 +0.00    +0.064 C 
DOCKED: ATOM      5  C   UNL d   1      23.224  -4.652  32.484 -0.35 +0.01    +0.066 A 
DOCKED: ATOM      6  C   UNL d   1      22.839  -4.390  33.788 -0.38 -0.00    -0.021 A 
DOCKED: ATOM      7  C   UNL d   1      23.014  -5.553  34.497 -0.24 -0.00    -0.025 A 
DOCKED: ATOM      8  C   UNL d   1      23.498  -6.482  33.596 -0.28 +0.01    +0.066 A 
DOCKED: ATOM      9  C   UNL d   1      22.711  -5.755  35.950 -0.18 +0.01    +0.051 C 
DOCKED: ATOM     10  C   UNL d   1      24.264  -8.783  33.088 -0.32 +0.01    +0.066 A 
DOCKED: ATOM     11  C   UNL d   1      24.703 -10.053  33.473 -0.29 -0.00    -0.021 A 
DOCKED: ATOM     12  C   UNL d   1      25.047 -10.715  32.311 -0.36 +0.00    +0.000 A 
DOCKED: ATOM     13  C   UNL d   1      24.806  -9.804  31.269 -0.38 +0.01    +0.070 A 
DOCKED: ATOM     14  C   UNL d   1      24.852 -10.585  34.883 -0.24 +0.02    +0.052 C 
DOCKED: ATOM     15  C   UNL d   1      24.786  -9.210  28.850 -0.42 +0.00    +0.066 A 
DOCKED: ATOM     16  C   UNL d   1      24.852  -9.558  27.506 -0.49 -0.00    -0.021 A 
DOCKED: ATOM     17  C   UNL d   1      24.657  -8.400  26.783 -0.44 +0.00    +0.000 A 
DOCKED: ATOM     18  C   UNL d   1      24.480  -7.370  27.704 -0.34 +0.00    +0.070 A 
DOCKED: ATOM     19  C   UNL d   1      25.114 -10.921  26.923 -0.65 -0.00    +0.052 C 
DOCKED: ATOM     20  C   UNL d   1      24.025  -4.982  28.291 -0.37 +0.00    +0.066 A 
DOCKED: ATOM     21  C   UNL d   1      24.012  -3.620  27.958 -0.43 -0.00    -0.025 A 
DOCKED: ATOM     22  C   UNL d   1      23.701  -2.950  29.123 -0.43 -0.00    -0.021 A 
DOCKED: ATOM     23  C   UNL d   1      23.544  -3.923  30.117 -0.39 +0.01    +0.066 A 
DOCKED: ATOM     24  C   UNL d   1      24.281  -2.973  26.619 -0.57 +0.00    +0.051 C 
DOCKED: ATOM     25  N   UNL d   1      23.616  -5.933  32.370 -0.22 -0.03    -0.248 N 
DOCKED: ATOM     26  N   UNL d   1      24.337  -8.623  31.742 -0.23 -0.02    -0.248 N 
DOCKED: ATOM     27  N   UNL d   1      24.515  -7.874  28.974 -0.22 -0.01    -0.248 N 
DOCKED: ATOM     28  N   UNL d   1      23.786  -5.158  29.613 -0.25 -0.02    -0.248 N 
DOCKED: ATOM     29 FE   UNL d   1      24.062  -6.890  30.676 -0.09 +0.00    +0.000 Fe
DOCKED: ENDROOT
DOCKED: BRANCH   6  30
DOCKED: ATOM     30  C   UNL d   1      22.312  -3.106  34.332 -0.44 +0.01    +0.052 C 
DOCKED: BRANCH  30  31
DOCKED: ATOM     31  C   UNL d   1      23.440  -2.098  34.524 -0.39 +0.01    +0.115 C 
DOCKED: BRANCH  31  32
DOCKED: ATOM     32  C   UNL d   1      23.634  -1.798  35.985 -0.33 +0.01    +0.139 C 
DOCKED: ATOM     33  O   UNL d   1      24.561  -2.299  36.606 -0.01 -0.09    -0.650 OA
DOCKED: BRANCH  32  34
DOCKED: ATOM     34  O   UNL d   1      22.787  -0.974  36.623 +0.08 +0.04    -0.776 OA
DOCKED: ATOM     35  H   UNL d   1      22.984  -0.027  36.650 -0.47 -0.06    +0.167 HD
DOCKED: ENDBRANCH  32  34
DOCKED: ENDBRANCH  31  32
DOCKED: ENDBRANCH  30  31
DOCKED: ENDBRANCH   6  30
DOCKED: BRANCH  22  36
DOCKED: ATOM     36  C   UNL d   1      23.610  -1.455  29.281 -0.53 +0.00    +0.052 C 
DOCKED: BRANCH  36  37
DOCKED: ATOM     37  C   UNL d   1      22.476  -0.916  28.420 -0.53 +0.01    +0.115 C 
DOCKED: BRANCH  37  38
DOCKED: ATOM     38  C   UNL d   1      22.856   0.391  27.785 -0.42 -0.01    +0.139 C 
DOCKED: ATOM     39  O   UNL d   1      22.825   1.431  28.426 +0.05 +0.06    -0.650 OA
DOCKED: BRANCH  38  40
DOCKED: ATOM     40  O   UNL d   1      23.233   0.425  26.494 +0.16 +0.06    -0.776 OA
DOCKED: ATOM     41  H   UNL d   1      22.693   0.916  25.859 -0.36 -0.05    +0.167 HD
DOCKED: ENDBRANCH  38  40
DOCKED: ENDBRANCH  37  38
DOCKED: ENDBRANCH  36  37
DOCKED: ENDBRANCH  22  36
DOCKED: BRANCH  12  42
DOCKED: ATOM     42  C   UNL d   1      25.581 -12.111  32.248 -0.33 +0.00    +0.004 C 
DOCKED: ATOM     43  C   UNL d   1      26.760 -12.423  32.801 -0.35 +0.00    +0.012 C 
DOCKED: ENDBRANCH  12  42
DOCKED: BRANCH  17  44
DOCKED: ATOM     44  C   UNL d   1      24.621  -8.290  25.307 -0.52 +0.00    +0.004 C 
DOCKED: ATOM     45  C   UNL d   1      25.744  -8.375  24.587 -0.56 +0.00    +0.012 C 
DOCKED: ENDBRANCH  17  44
DOCKED: TORSDOF 10
DOCKED: TER
DOCKED: ENDMDL
________________________________________________________________________________


	BEGINNING GENETIC ALGORITHM DOCKING 81 of 100
Run: 81 Seed: 810815742 2145678602 [ Run 81 of 100 GA/GALS ]
Beginning LAMARCKIAN GENETIC ALGORITHM (LGA), with a maximum of 25000000 energy evaluations.

Final-Value: -17.744


	FINAL GENETIC ALGORITHM DOCKED STATE
	_______________________________________________


Detailed state:  trans 8.186 13.170 29.262 quatxyzw 0.603355 0.013863 -0.762826 -0.232093 center -0.174 -0.001 -0.047 ntor 10 42.1319 119.9897 65.7139 -132.2098 -60.6330 163.9637 -26.1719 63.7044 -132.6754 27.8644
State:	  8.186  13.170  29.262   0.620  0.014 -0.784 -153.159     42.13  119.99   65.71 -132.21  -60.63  163.96  -26.17   63.70 -132.68   27.86

DOCKED: MODEL       81
DOCKED: USER    Run = 81
DOCKED: USER    DPF = D:/Protein_go_brrr/autodock/final/1A3N/heme_Fe/dock.dpf
DOCKED: USER  
DOCKED: USER    Estimated Free Energy of Binding    =  -14.35 kcal/mol  [=(1)+(2)+(3)-(4)]
DOCKED: USER    Estimated Inhibition Constant, Ki   =   30.21 pM (picomolar)  [Temperature = 298.15 K]
DOCKED: USER    
DOCKED: USER    (1) Final Intermolecular Energy     =  -17.33 kcal/mol
DOCKED: USER        vdW + Hbond + desolv Energy     =  -14.26 kcal/mol
DOCKED: USER        Electrostatic Energy            =   -3.08 kcal/mol
DOCKED: USER    (2) Final Total Internal Energy     =   -0.41 kcal/mol
DOCKED: USER    (3) Torsional Free Energy           =   +2.98 kcal/mol
DOCKED: USER    (4) Unbound System's Energy  [=(2)] =   -0.41 kcal/mol
DOCKED: USER    
DOCKED: USER    
DOCKED: USER    NEWDPF move heme_Fe_opt.pdbqt
DOCKED: USER    NEWDPF about -0.174000 -0.001000 -0.047000
DOCKED: USER    NEWDPF tran0 8.186427 13.170410 29.261657
DOCKED: USER    NEWDPF quaternion0 0.603355 0.013863 -0.762826 -0.232093
DOCKED: USER    NEWDPF axisangle0 0.620293 0.014253 -0.784241 -153.159365
DOCKED: USER    NEWDPF quat0 0.620293 0.014253 -0.784241 -153.159365
DOCKED: USER    NEWDPF dihe0 42.13 119.99 65.71 -132.21 -60.63 163.96 -26.17 63.70 -132.68 27.86 
DOCKED: USER  keepresnum = 1 
DOCKED: USER  
DOCKED: REMARK  10 active torsions:
DOCKED: REMARK  status: ('A' for Active; 'I' for Inactive)
DOCKED: REMARK    1  A    between atoms: C_6  and  C_10 
DOCKED: REMARK    2  A    between atoms: C_10  and  C_11 
DOCKED: REMARK    3  A    between atoms: C_11  and  C_12 
DOCKED: REMARK    4  A    between atoms: C_12  and  O_14 
DOCKED: REMARK    5  A    between atoms: C_17  and  C_20 
DOCKED: REMARK    6  A    between atoms: C_24  and  C_27 
DOCKED: REMARK    7  A    between atoms: C_31  and  C_34 
DOCKED: REMARK    8  A    between atoms: C_34  and  C_35 
DOCKED: REMARK    9  A    between atoms: C_35  and  C_36 
DOCKED: REMARK   10  A    between atoms: C_36  and  O_38 
DOCKED: USER                              x       y       z     vdW  Elec       q    Type
DOCKED: USER                           _______ _______ _______ _____ _____    ______ ____
DOCKED: ROOT
DOCKED: ATOM      1  C   UNL d   1       8.004  13.731  31.227 -0.31 +0.02    +0.064 C 
DOCKED: ATOM      2  C   UNL d   1       6.348  15.523  26.928 -0.44 +0.01    +0.064 A 
DOCKED: ATOM      3  C   UNL d   1       7.485  11.354  24.832 -0.35 +0.00    +0.064 C 
DOCKED: ATOM      4  C   UNL d   1       9.190   9.638  28.960 -0.46 +0.01    +0.064 C 
DOCKED: ATOM      5  C   UNL d   1       7.509  14.652  30.194 -0.32 +0.02    +0.066 A 
DOCKED: ATOM      6  C   UNL d   1       7.187  15.982  30.409 -0.31 -0.01    -0.021 A 
DOCKED: ATOM      7  C   UNL d   1       6.724  16.478  29.216 -0.34 -0.00    -0.025 A 
DOCKED: ATOM      8  C   UNL d   1       6.782  15.430  28.317 -0.40 +0.01    +0.066 A 
DOCKED: ATOM      9  C   UNL d   1       6.273  17.883  28.959 -0.32 +0.01    +0.051 C 
DOCKED: ATOM     10  C   UNL d   1       6.446  14.545  26.026 -0.38 +0.01    +0.066 A 
DOCKED: ATOM     11  C   UNL d   1       5.918  14.626  24.735 -0.42 -0.00    -0.021 A 
DOCKED: ATOM     12  C   UNL d   1       6.218  13.429  24.116 -0.39 +0.00    +0.000 A 
DOCKED: ATOM     13  C   UNL d   1       6.913  12.670  25.073 -0.34 +0.00    +0.070 A 
DOCKED: ATOM     14  C   UNL d   1       5.107  15.760  24.144 -0.56 +0.00    +0.052 C 
DOCKED: ATOM     15  C   UNL d   1       8.110  10.598  25.765 -0.34 +0.00    +0.066 A 
DOCKED: ATOM     16  C   UNL d   1       8.731   9.390  25.471 -0.43 -0.00    -0.021 A 
DOCKED: ATOM     17  C   UNL d   1       9.220   8.891  26.661 -0.43 +0.00    +0.000 A 
DOCKED: ATOM     18  C   UNL d   1       8.882   9.807  27.655 -0.38 +0.01    +0.070 A 
DOCKED: ATOM     19  C   UNL d   1       8.839   8.716  24.129 -0.60 +0.00    +0.052 C 
DOCKED: ATOM     20  C   UNL d   1       8.905  10.608  30.024 -0.36 +0.02    +0.066 A 
DOCKED: ATOM     21  C   UNL d   1       9.035  10.364  31.398 -0.37 -0.01    -0.025 A 
DOCKED: ATOM     22  C   UNL d   1       8.704  11.547  32.025 -0.30 -0.01    -0.021 A 
DOCKED: ATOM     23  C   UNL d   1       8.381  12.461  31.014 -0.16 +0.02    +0.066 A 
DOCKED: ATOM     24  C   UNL d   1       9.444   9.087  32.095 -0.46 +0.02    +0.051 C 
DOCKED: ATOM     25  N   UNL d   1       7.269  14.323  28.913 -0.23 -0.05    -0.248 N 
DOCKED: ATOM     26  N   UNL d   1       7.045  13.346  26.240 -0.23 -0.02    -0.248 N 
DOCKED: ATOM     27  N   UNL d   1       8.239  10.877  27.099 -0.22 -0.02    -0.248 N 
DOCKED: ATOM     28  N   UNL d   1       8.462  11.869  29.798 -0.21 -0.06    -0.248 N 
DOCKED: ATOM     29 FE   UNL d   1       7.754  12.605  28.019 -0.08 +0.00    +0.000 Fe
DOCKED: ENDROOT
DOCKED: BRANCH   6  30
DOCKED: ATOM     30  C   UNL d   1       7.331  16.751  31.678 -0.28 +0.02    +0.052 C 
DOCKED: BRANCH  30  31
DOCKED: ATOM     31  C   UNL d   1       6.854  15.925  32.867 -0.13 +0.10    +0.115 C 
DOCKED: BRANCH  31  32
DOCKED: ATOM     32  C   UNL d   1       7.543  16.371  34.127 -0.13 +0.15    +0.139 C 
DOCKED: ATOM     33  O   UNL d   1       8.759  16.302  34.230 -0.01 -0.42    -0.650 OA
DOCKED: BRANCH  32  34
DOCKED: ATOM     34  O   UNL d   1       6.823  16.850  35.156 -0.53 -1.37    -0.776 OA
DOCKED: ATOM     35  H   UNL d   1       7.147  17.627  35.634 +0.01 +0.17    +0.167 HD
DOCKED: ENDBRANCH  32  34
DOCKED: ENDBRANCH  31  32
DOCKED: ENDBRANCH  30  31
DOCKED: ENDBRANCH   6  30
DOCKED: BRANCH  22  36
DOCKED: ATOM     36  C   UNL d   1       8.655  11.771  33.514 -0.26 +0.03    +0.052 C 
DOCKED: BRANCH  36  37
DOCKED: ATOM     37  C   UNL d   1       9.542  12.949  33.886 -0.21 +0.08    +0.115 C 
DOCKED: BRANCH  37  38
DOCKED: ATOM     38  C   UNL d   1      10.668  12.515  34.781 -0.10 +0.17    +0.139 C 
DOCKED: ATOM     39  O   UNL d   1      11.643  13.232  34.953 -0.44 -1.08    -0.650 OA
DOCKED: BRANCH  38  40
DOCKED: ATOM     40  O   UNL d   1      10.611  11.322  35.400 -0.30 -1.09    -0.776 OA
DOCKED: ATOM     41  H   UNL d   1       9.883  11.145  36.013 +0.05 +0.16    +0.167 HD
DOCKED: ENDBRANCH  38  40
DOCKED: ENDBRANCH  37  38
DOCKED: ENDBRANCH  36  37
DOCKED: ENDBRANCH  22  36
DOCKED: BRANCH  12  42
DOCKED: ATOM     42  C   UNL d   1       5.833  13.070  22.716 -0.49 +0.00    +0.004 C 
DOCKED: ATOM     43  C   UNL d   1       6.763  12.905  21.766 -0.53 +0.00    +0.012 C 
DOCKED: ENDBRANCH  12  42
DOCKED: BRANCH  17  44
DOCKED: ATOM     44  C   UNL d   1       9.979   7.632  26.831 -0.14 +0.00    +0.004 C 
DOCKED: ATOM     45  C   UNL d   1       9.352   6.451  26.846 -0.63 +0.00    +0.012 C 
DOCKED: ENDBRANCH  17  44
DOCKED: TORSDOF 10
DOCKED: TER
DOCKED: ENDMDL
________________________________________________________________________________


	BEGINNING GENETIC ALGORITHM DOCKING 82 of 100
Run: 82 Seed: 731068444 759967940 [ Run 82 of 100 GA/GALS ]
Beginning LAMARCKIAN GENETIC ALGORITHM (LGA), with a maximum of 25000000 energy evaluations.

Final-Value: -17.526


	FINAL GENETIC ALGORITHM DOCKED STATE
	_______________________________________________


Detailed state:  trans 7.208 13.372 30.974 quatxyzw 0.305056 -0.637948 0.048391 0.705423 center -0.174 -0.001 -0.047 ntor 10 -173.4302 164.2923 49.5716 -127.6724 -103.4180 -30.1771 175.6177 69.7241 175.8531 141.0930
State:	  7.208  13.372  30.974   0.430 -0.900  0.068 90.273   -173.43  164.29   49.57 -127.67 -103.42  -30.18  175.62   69.72  175.85  141.09

DOCKED: MODEL       82
DOCKED: USER    Run = 82
DOCKED: USER    DPF = D:/Protein_go_brrr/autodock/final/1A3N/heme_Fe/dock.dpf
DOCKED: USER  
DOCKED: USER    Estimated Free Energy of Binding    =  -12.85 kcal/mol  [=(1)+(2)+(3)-(4)]
DOCKED: USER    Estimated Inhibition Constant, Ki   =  380.06 pM (picomolar)  [Temperature = 298.15 K]
DOCKED: USER    
DOCKED: USER    (1) Final Intermolecular Energy     =  -15.83 kcal/mol
DOCKED: USER        vdW + Hbond + desolv Energy     =  -13.18 kcal/mol
DOCKED: USER        Electrostatic Energy            =   -2.66 kcal/mol
DOCKED: USER    (2) Final Total Internal Energy     =   -1.69 kcal/mol
DOCKED: USER    (3) Torsional Free Energy           =   +2.98 kcal/mol
DOCKED: USER    (4) Unbound System's Energy  [=(2)] =   -1.69 kcal/mol
DOCKED: USER    
DOCKED: USER    
DOCKED: USER    NEWDPF move heme_Fe_opt.pdbqt
DOCKED: USER    NEWDPF about -0.174000 -0.001000 -0.047000
DOCKED: USER    NEWDPF tran0 7.208118 13.372220 30.973821
DOCKED: USER    NEWDPF quaternion0 0.305056 -0.637948 0.048391 0.705423
DOCKED: USER    NEWDPF axisangle0 0.430392 -0.900056 0.068273 90.272554
DOCKED: USER    NEWDPF quat0 0.430392 -0.900056 0.068273 90.272554
DOCKED: USER    NEWDPF dihe0 -173.43 164.29 49.57 -127.67 -103.42 -30.18 175.62 69.72 175.85 141.09 
DOCKED: USER  keepresnum = 1 
DOCKED: USER  
DOCKED: REMARK  10 active torsions:
DOCKED: REMARK  status: ('A' for Active; 'I' for Inactive)
DOCKED: REMARK    1  A    between atoms: C_6  and  C_10 
DOCKED: REMARK    2  A    between atoms: C_10  and  C_11 
DOCKED: REMARK    3  A    between atoms: C_11  and  C_12 
DOCKED: REMARK    4  A    between atoms: C_12  and  O_14 
DOCKED: REMARK    5  A    between atoms: C_17  and  C_20 
DOCKED: REMARK    6  A    between atoms: C_24  and  C_27 
DOCKED: REMARK    7  A    between atoms: C_31  and  C_34 
DOCKED: REMARK    8  A    between atoms: C_34  and  C_35 
DOCKED: REMARK    9  A    between atoms: C_35  and  C_36 
DOCKED: REMARK   10  A    between atoms: C_36  and  O_38 
DOCKED: USER                              x       y       z     vdW  Elec       q    Type
DOCKED: USER                           _______ _______ _______ _____ _____    ______ ____
DOCKED: ROOT
DOCKED: ATOM      1  C   UNL d   1       7.362  14.427  32.727 -0.28 +0.05    +0.064 C 
DOCKED: ATOM      2  C   UNL d   1       8.911   9.994  31.185 -0.36 +0.02    +0.064 A 
DOCKED: ATOM      3  C   UNL d   1       8.003  11.328  26.661 -0.36 +0.00    +0.064 C 
DOCKED: ATOM      4  C   UNL d   1       6.400  15.585  28.141 -0.49 +0.01    +0.064 C 
DOCKED: ATOM      5  C   UNL d   1       7.804  13.025  32.720 -0.22 +0.04    +0.066 A 
DOCKED: ATOM      6  C   UNL d   1       8.053  12.268  33.853 -0.22 -0.01    -0.021 A 
DOCKED: ATOM      7  C   UNL d   1       8.487  11.039  33.423 -0.29 -0.01    -0.025 A 
DOCKED: ATOM      8  C   UNL d   1       8.486  11.092  32.043 -0.31 +0.03    +0.066 A 
DOCKED: ATOM      9  C   UNL d   1       8.859   9.880  34.296 -0.32 +0.03    +0.051 C 
DOCKED: ATOM     10  C   UNL d   1       8.866   9.999  29.851 -0.38 +0.02    +0.066 A 
DOCKED: ATOM     11  C   UNL d   1       9.388   8.977  29.054 -0.41 -0.00    -0.021 A 
DOCKED: ATOM     12  C   UNL d   1       9.153   9.346  27.744 -0.43 +0.00    +0.000 A 
DOCKED: ATOM     13  C   UNL d   1       8.502  10.590  27.811 -0.34 +0.01    +0.070 A 
DOCKED: ATOM     14  C   UNL d   1      10.134   7.742  29.515 -0.47 +0.01    +0.052 C 
DOCKED: ATOM     15  C   UNL d   1       7.421  12.549  26.716 -0.33 +0.00    +0.066 A 
DOCKED: ATOM     16  C   UNL d   1       6.868  13.176  25.607 -0.38 -0.00    -0.021 A 
DOCKED: ATOM     17  C   UNL d   1       6.408  14.406  26.031 -0.42 +0.00    +0.000 A 
DOCKED: ATOM     18  C   UNL d   1       6.696  14.502  27.390 -0.37 +0.01    +0.070 A 
DOCKED: ATOM     19  C   UNL d   1       6.795  12.654  24.197 -0.40 +0.00    +0.052 C 
DOCKED: ATOM     20  C   UNL d   1       6.632  15.697  29.586 -0.38 +0.02    +0.066 A 
DOCKED: ATOM     21  C   UNL d   1       6.518  16.876  30.336 -0.32 -0.01    -0.025 A 
DOCKED: ATOM     22  C   UNL d   1       6.784  16.521  31.642 -0.27 -0.01    -0.021 A 
DOCKED: ATOM     23  C   UNL d   1       7.055  15.147  31.637 -0.28 +0.03    +0.066 A 
DOCKED: ATOM     24  C   UNL d   1       6.180  18.269  29.857 -0.35 +0.01    +0.051 C 
DOCKED: ATOM     25  N   UNL d   1       8.061  12.299  31.618 -0.11 -0.09    -0.248 N 
DOCKED: ATOM     26  N   UNL d   1       8.334  10.993  29.094 -0.20 -0.05    -0.248 N 
DOCKED: ATOM     27  N   UNL d   1       7.280  13.343  27.822 -0.23 -0.03    -0.248 N 
DOCKED: ATOM     28  N   UNL d   1       7.005  14.659  30.373 -0.21 -0.08    -0.248 N 
DOCKED: ATOM     29 FE   UNL d   1       7.669  12.828  29.733 -0.08 +0.00    +0.000 Fe
DOCKED: ENDROOT
DOCKED: BRANCH   6  30
DOCKED: ATOM     30  C   UNL d   1       7.868  12.683  35.272 -0.16 +0.04    +0.052 C 
DOCKED: BRANCH  30  31
DOCKED: ATOM     31  C   UNL d   1       9.175  13.209  35.856 -0.10 +0.09    +0.115 C 
DOCKED: BRANCH  31  32
DOCKED: ATOM     32  C   UNL d   1      10.293  13.058  34.863 -0.19 +0.13    +0.139 C 
DOCKED: ATOM     33  O   UNL d   1      11.120  12.165  34.986 -0.50 -1.22    -0.650 OA
DOCKED: BRANCH  32  34
DOCKED: ATOM     34  O   UNL d   1      10.394  13.907  33.826 +0.01 -0.56    -0.776 OA
DOCKED: ATOM     35  H   UNL d   1       9.798  14.668  33.782 +0.05 +0.10    +0.167 HD
DOCKED: ENDBRANCH  32  34
DOCKED: ENDBRANCH  31  32
DOCKED: ENDBRANCH  30  31
DOCKED: ENDBRANCH   6  30
DOCKED: BRANCH  22  36
DOCKED: ATOM     36  C   UNL d   1       6.822  17.459  32.819 -0.20 +0.03    +0.052 C 
DOCKED: BRANCH  36  37
DOCKED: ATOM     37  C   UNL d   1       8.189  17.392  33.485 -0.15 +0.06    +0.115 C 
DOCKED: BRANCH  37  38
DOCKED: ATOM     38  C   UNL d   1       8.097  16.750  34.840 -0.12 +0.12    +0.139 C 
DOCKED: ATOM     39  O   UNL d   1       7.081  16.852  35.512 -0.59 -1.03    -0.650 OA
DOCKED: BRANCH  38  40
DOCKED: ATOM     40  O   UNL d   1       9.142  16.057  35.327 +0.03 -0.51    -0.776 OA
DOCKED: ATOM     41  H   UNL d   1       9.845  15.781  34.723 +0.04 +0.10    +0.167 HD
DOCKED: ENDBRANCH  38  40
DOCKED: ENDBRANCH  37  38
DOCKED: ENDBRANCH  36  37
DOCKED: ENDBRANCH  22  36
DOCKED: BRANCH  12  42
DOCKED: ATOM     42  C   UNL d   1       9.556   8.548  26.545 -0.48 +0.00    +0.004 C 
DOCKED: ATOM     43  C   UNL d   1       8.682   7.740  25.930 -0.53 +0.00    +0.012 C 
DOCKED: ENDBRANCH  12  42
DOCKED: BRANCH  17  44
DOCKED: ATOM     44  C   UNL d   1       5.720  15.415  25.194 -0.54 +0.00    +0.004 C 
DOCKED: ATOM     45  C   UNL d   1       6.398  16.140  24.299 -0.54 +0.00    +0.012 C 
DOCKED: ENDBRANCH  17  44
DOCKED: TORSDOF 10
DOCKED: TER
DOCKED: ENDMDL
________________________________________________________________________________


	BEGINNING GENETIC ALGORITHM DOCKING 83 of 100
Run: 83 Seed: 319027532 1104941883 [ Run 83 of 100 GA/GALS ]
Beginning LAMARCKIAN GENETIC ALGORITHM (LGA), with a maximum of 25000000 energy evaluations.

Final-Value: -17.782


	FINAL GENETIC ALGORITHM DOCKED STATE
	_______________________________________________


Detailed state:  trans 24.357 -7.243 32.495 quatxyzw 0.663275 0.187395 -0.724512 0.005607 center -0.174 -0.001 -0.047 ntor 10 -61.2448 -98.0507 49.7805 -119.8765 120.8016 89.1745 76.3612 -46.2195 22.1615 -9.3970
State:	 24.357  -7.243  32.495   0.663  0.187 -0.725 179.357    -61.24  -98.05   49.78 -119.88  120.80   89.17   76.36  -46.22   22.16   -9.40

DOCKED: MODEL       83
DOCKED: USER    Run = 83
DOCKED: USER    DPF = D:/Protein_go_brrr/autodock/final/1A3N/heme_Fe/dock.dpf
DOCKED: USER  
DOCKED: USER    Estimated Free Energy of Binding    =  -13.37 kcal/mol  [=(1)+(2)+(3)-(4)]
DOCKED: USER    Estimated Inhibition Constant, Ki   =  159.21 pM (picomolar)  [Temperature = 298.15 K]
DOCKED: USER    
DOCKED: USER    (1) Final Intermolecular Energy     =  -16.35 kcal/mol
DOCKED: USER        vdW + Hbond + desolv Energy     =  -13.86 kcal/mol
DOCKED: USER        Electrostatic Energy            =   -2.49 kcal/mol
DOCKED: USER    (2) Final Total Internal Energy     =   -1.43 kcal/mol
DOCKED: USER    (3) Torsional Free Energy           =   +2.98 kcal/mol
DOCKED: USER    (4) Unbound System's Energy  [=(2)] =   -1.43 kcal/mol
DOCKED: USER    
DOCKED: USER    
DOCKED: USER    NEWDPF move heme_Fe_opt.pdbqt
DOCKED: USER    NEWDPF about -0.174000 -0.001000 -0.047000
DOCKED: USER    NEWDPF tran0 24.356700 -7.242720 32.494747
DOCKED: USER    NEWDPF quaternion0 0.663275 0.187395 -0.724512 0.005607
DOCKED: USER    NEWDPF axisangle0 0.663286 0.187398 -0.724523 179.357495
DOCKED: USER    NEWDPF quat0 0.663286 0.187398 -0.724523 179.357495
DOCKED: USER    NEWDPF dihe0 -61.24 -98.05 49.78 -119.88 120.80 89.17 76.36 -46.22 22.16 -9.40 
DOCKED: USER  keepresnum = 1 
DOCKED: USER  
DOCKED: REMARK  10 active torsions:
DOCKED: REMARK  status: ('A' for Active; 'I' for Inactive)
DOCKED: REMARK    1  A    between atoms: C_6  and  C_10 
DOCKED: REMARK    2  A    between atoms: C_10  and  C_11 
DOCKED: REMARK    3  A    between atoms: C_11  and  C_12 
DOCKED: REMARK    4  A    between atoms: C_12  and  O_14 
DOCKED: REMARK    5  A    between atoms: C_17  and  C_20 
DOCKED: REMARK    6  A    between atoms: C_24  and  C_27 
DOCKED: REMARK    7  A    between atoms: C_31  and  C_34 
DOCKED: REMARK    8  A    between atoms: C_34  and  C_35 
DOCKED: REMARK    9  A    between atoms: C_35  and  C_36 
DOCKED: REMARK   10  A    between atoms: C_36  and  O_38 
DOCKED: USER                              x       y       z     vdW  Elec       q    Type
DOCKED: USER                           _______ _______ _______ _____ _____    ______ ____
DOCKED: ROOT
DOCKED: ATOM      1  C   UNL d   1      24.068  -7.837  34.438 -0.32 +0.02    +0.064 C 
DOCKED: ATOM      2  C   UNL d   1      23.017  -3.757  31.853 -0.40 +0.01    +0.064 A 
DOCKED: ATOM      3  C   UNL d   1      23.842  -6.196  27.799 -0.44 +0.00    +0.064 C 
DOCKED: ATOM      4  C   UNL d   1      24.965 -10.126  30.284 -0.48 +0.00    +0.064 C 
DOCKED: ATOM      5  C   UNL d   1      23.777  -6.439  34.089 -0.23 +0.01    +0.066 A 
DOCKED: ATOM      6  C   UNL d   1      23.594  -5.417  35.006 -0.25 -0.00    -0.021 A 
DOCKED: ATOM      7  C   UNL d   1      23.298  -4.286  34.287 -0.32 -0.00    -0.025 A 
DOCKED: ATOM      8  C   UNL d   1      23.312  -4.661  32.958 -0.24 +0.01    +0.066 A 
DOCKED: ATOM      9  C   UNL d   1      23.038  -2.923  34.854 -0.40 +0.01    +0.051 C 
DOCKED: ATOM     10  C   UNL d   1      23.080  -4.079  30.560 -0.40 +0.01    +0.066 A 
DOCKED: ATOM     11  C   UNL d   1      22.680  -3.225  29.529 -0.45 -0.00    -0.021 A 
DOCKED: ATOM     12  C   UNL d   1      22.892  -3.911  28.350 -0.46 +0.00    +0.000 A 
DOCKED: ATOM     13  C   UNL d   1      23.408  -5.164  28.727 -0.38 +0.00    +0.070 A 
DOCKED: ATOM     14  C   UNL d   1      22.061  -1.848  29.663 -0.50 +0.00    +0.052 C 
DOCKED: ATOM     15  C   UNL d   1      24.290  -7.422  28.157 -0.39 +0.00    +0.066 A 
DOCKED: ATOM     16  C   UNL d   1      24.789  -8.343  27.245 -0.41 -0.00    -0.021 A 
DOCKED: ATOM     17  C   UNL d   1      25.111  -9.479  27.959 -0.50 +0.00    +0.000 A 
DOCKED: ATOM     18  C   UNL d   1      24.796  -9.225  29.292 -0.41 +0.00    +0.070 A 
DOCKED: ATOM     19  C   UNL d   1      24.936  -8.175  25.757 -0.48 +0.00    +0.052 C 
DOCKED: ATOM     20  C   UNL d   1      24.703  -9.873  31.706 -0.37 +0.01    +0.066 A 
DOCKED: ATOM     21  C   UNL d   1      24.682 -10.850  32.712 -0.23 -0.00    -0.025 A 
DOCKED: ATOM     22  C   UNL d   1      24.437 -10.173  33.889 -0.27 -0.00    -0.021 A 
DOCKED: ATOM     23  C   UNL d   1      24.312  -8.819  33.556 -0.30 +0.01    +0.066 A 
DOCKED: ATOM     24  C   UNL d   1      24.877 -12.342  32.582 -0.07 +0.00    +0.051 C 
DOCKED: ATOM     25  N   UNL d   1      23.613  -5.969  32.840 -0.21 -0.04    -0.248 N 
DOCKED: ATOM     26  N   UNL d   1      23.514  -5.269  30.074 -0.25 -0.01    -0.248 N 
DOCKED: ATOM     27  N   UNL d   1      24.332  -7.946  29.421 -0.25 -0.01    -0.248 N 
DOCKED: ATOM     28  N   UNL d   1      24.431  -8.648  32.217 -0.23 -0.03    -0.248 N 
DOCKED: ATOM     29 FE   UNL d   1      23.973  -6.961  31.145 -0.09 +0.00    +0.000 Fe
DOCKED: ENDROOT
DOCKED: BRANCH   6  30
DOCKED: ATOM     30  C   UNL d   1      23.714  -5.504  36.489 -0.21 +0.02    +0.052 C 
DOCKED: BRANCH  30  31
DOCKED: ATOM     31  C   UNL d   1      24.928  -4.723  36.979 -0.19 +0.05    +0.115 C 
DOCKED: BRANCH  31  32
DOCKED: ATOM     32  C   UNL d   1      26.050  -5.660  37.332 -0.18 +0.13    +0.139 C 
DOCKED: ATOM     33  O   UNL d   1      27.132  -5.579  36.767 -0.23 -0.84    -0.650 OA
DOCKED: BRANCH  32  34
DOCKED: ATOM     34  O   UNL d   1      25.872  -6.601  38.275 -0.18 -1.03    -0.776 OA
DOCKED: ATOM     35  H   UNL d   1      25.957  -7.533  38.031 +0.02 +0.34    +0.167 HD
DOCKED: ENDBRANCH  32  34
DOCKED: ENDBRANCH  31  32
DOCKED: ENDBRANCH  30  31
DOCKED: ENDBRANCH   6  30
DOCKED: BRANCH  22  36
DOCKED: ATOM     36  C   UNL d   1      24.283 -10.802  35.249 -0.22 +0.01    +0.052 C 
DOCKED: BRANCH  36  37
DOCKED: ATOM     37  C   UNL d   1      25.648 -10.937  35.909 -0.11 +0.06    +0.115 C 
DOCKED: BRANCH  37  38
DOCKED: ATOM     38  C   UNL d   1      25.610 -10.447  37.329 -0.11 +0.10    +0.139 C 
DOCKED: ATOM     39  O   UNL d   1      25.325 -11.205  38.244 -0.00 -0.30    -0.650 OA
DOCKED: BRANCH  38  40
DOCKED: ATOM     40  O   UNL d   1      25.889  -9.160  37.602 -0.31 -1.22    -0.776 OA
DOCKED: ATOM     41  H   UNL d   1      25.195  -8.495  37.491 +0.02 +0.19    +0.167 HD
DOCKED: ENDBRANCH  38  40
DOCKED: ENDBRANCH  37  38
DOCKED: ENDBRANCH  36  37
DOCKED: ENDBRANCH  22  36
DOCKED: BRANCH  12  42
DOCKED: ATOM     42  C   UNL d   1      22.593  -3.380  26.984 -0.58 +0.00    +0.004 C 
DOCKED: ATOM     43  C   UNL d   1      23.556  -2.834  26.231 -0.63 +0.00    +0.012 C 
DOCKED: ENDBRANCH  12  42
DOCKED: BRANCH  17  44
DOCKED: ATOM     44  C   UNL d   1      25.700 -10.719  27.405 -0.58 -0.00    +0.004 C 
DOCKED: ATOM     45  C   UNL d   1      25.011 -11.483  26.552 -0.66 -0.00    +0.012 C 
DOCKED: ENDBRANCH  17  44
DOCKED: TORSDOF 10
DOCKED: TER
DOCKED: ENDMDL
________________________________________________________________________________


	BEGINNING GENETIC ALGORITHM DOCKING 84 of 100
Run: 84 Seed: 670372986 1174089084 [ Run 84 of 100 GA/GALS ]
Beginning LAMARCKIAN GENETIC ALGORITHM (LGA), with a maximum of 25000000 energy evaluations.

Final-Value: -16.620


	FINAL GENETIC ALGORITHM DOCKED STATE
	_______________________________________________


Detailed state:  trans 24.322 7.284 -5.998 quatxyzw -0.130873 -0.711856 -0.335527 -0.602955 center -0.174 -0.001 -0.047 ntor 10 -134.0128 79.5750 -174.5225 -132.0475 -117.6714 166.7810 85.8572 59.5483 26.4026 139.7134
State:	 24.322   7.284  -5.998  -0.164 -0.892 -0.421 -105.836   -134.01   79.58 -174.52 -132.05 -117.67  166.78   85.86   59.55   26.40  139.71

DOCKED: MODEL       84
DOCKED: USER    Run = 84
DOCKED: USER    DPF = D:/Protein_go_brrr/autodock/final/1A3N/heme_Fe/dock.dpf
DOCKED: USER  
DOCKED: USER    Estimated Free Energy of Binding    =  -13.20 kcal/mol  [=(1)+(2)+(3)-(4)]
DOCKED: USER    Estimated Inhibition Constant, Ki   =  209.59 pM (picomolar)  [Temperature = 298.15 K]
DOCKED: USER    
DOCKED: USER    (1) Final Intermolecular Energy     =  -16.19 kcal/mol
DOCKED: USER        vdW + Hbond + desolv Energy     =  -13.16 kcal/mol
DOCKED: USER        Electrostatic Energy            =   -3.03 kcal/mol
DOCKED: USER    (2) Final Total Internal Energy     =   -0.43 kcal/mol
DOCKED: USER    (3) Torsional Free Energy           =   +2.98 kcal/mol
DOCKED: USER    (4) Unbound System's Energy  [=(2)] =   -0.43 kcal/mol
DOCKED: USER    
DOCKED: USER    
DOCKED: USER    NEWDPF move heme_Fe_opt.pdbqt
DOCKED: USER    NEWDPF about -0.174000 -0.001000 -0.047000
DOCKED: USER    NEWDPF tran0 24.321553 7.284094 -5.998485
DOCKED: USER    NEWDPF quaternion0 -0.130873 -0.711856 -0.335527 -0.602955
DOCKED: USER    NEWDPF axisangle0 -0.164047 -0.892302 -0.420578 -105.836273
DOCKED: USER    NEWDPF quat0 -0.164047 -0.892302 -0.420578 -105.836273
DOCKED: USER    NEWDPF dihe0 -134.01 79.58 -174.52 -132.05 -117.67 166.78 85.86 59.55 26.40 139.71 
DOCKED: USER  keepresnum = 1 
DOCKED: USER  
DOCKED: REMARK  10 active torsions:
DOCKED: REMARK  status: ('A' for Active; 'I' for Inactive)
DOCKED: REMARK    1  A    between atoms: C_6  and  C_10 
DOCKED: REMARK    2  A    between atoms: C_10  and  C_11 
DOCKED: REMARK    3  A    between atoms: C_11  and  C_12 
DOCKED: REMARK    4  A    between atoms: C_12  and  O_14 
DOCKED: REMARK    5  A    between atoms: C_17  and  C_20 
DOCKED: REMARK    6  A    between atoms: C_24  and  C_27 
DOCKED: REMARK    7  A    between atoms: C_31  and  C_34 
DOCKED: REMARK    8  A    between atoms: C_34  and  C_35 
DOCKED: REMARK    9  A    between atoms: C_35  and  C_36 
DOCKED: REMARK   10  A    between atoms: C_36  and  O_38 
DOCKED: USER                              x       y       z     vdW  Elec       q    Type
DOCKED: USER                           _______ _______ _______ _____ _____    ______ ____
DOCKED: ROOT
DOCKED: ATOM      1  C   UNL d   1      24.349   8.011  -7.917 -0.30 +0.04    +0.064 C 
DOCKED: ATOM      2  C   UNL d   1      21.663   4.628  -5.516 -0.37 +0.01    +0.064 A 
DOCKED: ATOM      3  C   UNL d   1      23.305   6.377  -1.355 -0.39 +0.00    +0.064 C 
DOCKED: ATOM      4  C   UNL d   1      25.995   9.591  -3.663 -0.49 +0.01    +0.064 C 
DOCKED: ATOM      5  C   UNL d   1      23.506   6.843  -7.630 -0.21 +0.03    +0.066 A 
DOCKED: ATOM      6  C   UNL d   1      22.946   6.016  -8.591 -0.24 -0.01    -0.021 A 
DOCKED: ATOM      7  C   UNL d   1      22.197   5.079  -7.923 -0.30 -0.01    -0.025 A 
DOCKED: ATOM      8  C   UNL d   1      22.329   5.370  -6.579 -0.24 +0.01    +0.066 A 
DOCKED: ATOM      9  C   UNL d   1      21.419   3.962  -8.548 -0.37 +0.01    +0.051 C 
DOCKED: ATOM     10  C   UNL d   1      21.818   4.851  -4.210 -0.38 +0.01    +0.066 A 
DOCKED: ATOM     11  C   UNL d   1      21.079   4.200  -3.219 -0.41 -0.00    -0.021 A 
DOCKED: ATOM     12  C   UNL d   1      21.522   4.699  -2.010 -0.41 +0.00    +0.000 A 
DOCKED: ATOM     13  C   UNL d   1      22.512   5.644  -2.330 -0.34 +0.00    +0.070 A 
DOCKED: ATOM     14  C   UNL d   1      19.957   3.201  -3.416 -0.39 +0.01    +0.052 C 
DOCKED: ATOM     15  C   UNL d   1      24.223   7.326  -1.658 -0.35 +0.00    +0.066 A 
DOCKED: ATOM     16  C   UNL d   1      25.031   7.931  -0.703 -0.37 -0.00    -0.021 A 
DOCKED: ATOM     17  C   UNL d   1      25.805   8.861  -1.366 -0.42 +0.00    +0.000 A 
DOCKED: ATOM     18  C   UNL d   1      25.447   8.803  -2.711 -0.39 +0.01    +0.070 A 
DOCKED: ATOM     19  C   UNL d   1      25.058   7.666   0.778 -0.40 +0.00    +0.052 C 
DOCKED: ATOM     20  C   UNL d   1      25.688   9.516  -5.097 -0.37 +0.01    +0.066 A 
DOCKED: ATOM     21  C   UNL d   1      26.093  10.450  -6.061 -0.30 -0.01    -0.025 A 
DOCKED: ATOM     22  C   UNL d   1      25.624   9.973  -7.268 -0.29 -0.01    -0.021 A 
DOCKED: ATOM     23  C   UNL d   1      24.950   8.777  -6.993 -0.30 +0.03    +0.066 A 
DOCKED: ATOM     24  C   UNL d   1      26.875  11.728  -5.867 -0.29 +0.01    +0.051 C 
DOCKED: ATOM     25  N   UNL d   1      23.133   6.437  -6.404 -0.04 -0.07    -0.248 N 
DOCKED: ATOM     26  N   UNL d   1      22.687   5.744  -3.671 -0.24 -0.03    -0.248 N 
DOCKED: ATOM     27  N   UNL d   1      24.507   7.830  -2.899 -0.23 -0.02    -0.248 N 
DOCKED: ATOM     28  N   UNL d   1      24.954   8.527  -5.661 -0.22 -0.07    -0.248 N 
DOCKED: ATOM     29 FE   UNL d   1      23.822   7.137  -4.665 -0.08 +0.00    +0.000 Fe
DOCKED: ENDROOT
DOCKED: BRANCH   6  30
DOCKED: ATOM     30  C   UNL d   1      23.129   6.098 -10.068 -0.18 +0.03    +0.052 C 
DOCKED: BRANCH  30  31
DOCKED: ATOM     31  C   UNL d   1      23.841   4.856 -10.593 -0.22 +0.07    +0.115 C 
DOCKED: BRANCH  31  32
DOCKED: ATOM     32  C   UNL d   1      25.323   5.095 -10.679 -0.03 +0.18    +0.139 C 
DOCKED: ATOM     33  O   UNL d   1      25.900   5.050 -11.757 -0.19 -0.97    -0.650 OA
DOCKED: BRANCH  32  34
DOCKED: ATOM     34  O   UNL d   1      26.029   5.362  -9.568 -0.11 -1.12    -0.776 OA
DOCKED: ATOM     35  H   UNL d   1      25.886   4.820  -8.779 -0.23 +0.10    +0.167 HD
DOCKED: ENDBRANCH  32  34
DOCKED: ENDBRANCH  31  32
DOCKED: ENDBRANCH  30  31
DOCKED: ENDBRANCH   6  30
DOCKED: BRANCH  22  36
DOCKED: ATOM     36  C   UNL d   1      25.774  10.656  -8.602 -0.20 +0.03    +0.052 C 
DOCKED: BRANCH  36  37
DOCKED: ATOM     37  C   UNL d   1      24.403  10.875  -9.224 -0.18 +0.06    +0.115 C 
DOCKED: BRANCH  37  38
DOCKED: ATOM     38  C   UNL d   1      24.304  10.197 -10.561 -0.13 +0.11    +0.139 C 
DOCKED: ATOM     39  O   UNL d   1      23.221  10.049 -11.109 -0.00 -0.38    -0.650 OA
DOCKED: BRANCH  38  40
DOCKED: ATOM     40  O   UNL d   1      25.415   9.743 -11.167 -0.37 -1.36    -0.776 OA
DOCKED: ATOM     41  H   UNL d   1      25.811  10.267 -11.878 +0.01 +0.21    +0.167 HD
DOCKED: ENDBRANCH  38  40
DOCKED: ENDBRANCH  37  38
DOCKED: ENDBRANCH  36  37
DOCKED: ENDBRANCH  22  36
DOCKED: BRANCH  12  42
DOCKED: ATOM     42  C   UNL d   1      20.998   4.289  -0.671 -0.49 +0.00    +0.004 C 
DOCKED: ATOM     43  C   UNL d   1      20.559   5.202   0.206 -0.55 +0.00    +0.012 C 
DOCKED: ENDBRANCH  12  42
DOCKED: BRANCH  17  44
DOCKED: ATOM     44  C   UNL d   1      26.834   9.733  -0.756 -0.57 +0.00    +0.004 C 
DOCKED: ATOM     45  C   UNL d   1      26.485  10.828  -0.072 -0.60 +0.00    +0.012 C 
DOCKED: ENDBRANCH  17  44
DOCKED: TORSDOF 10
DOCKED: TER
DOCKED: ENDMDL
________________________________________________________________________________


	BEGINNING GENETIC ALGORITHM DOCKING 85 of 100
Run: 85 Seed: 577898756 696265199 [ Run 85 of 100 GA/GALS ]
Beginning LAMARCKIAN GENETIC ALGORITHM (LGA), with a maximum of 25000000 energy evaluations.

Final-Value: -17.848


	FINAL GENETIC ALGORITHM DOCKED STATE
	_______________________________________________


Detailed state:  trans 7.691 12.407 29.428 quatxyzw -0.251735 0.688045 -0.012693 -0.680487 center -0.174 -0.001 -0.047 ntor 10 101.4959 65.6297 63.0805 -164.1183 -87.0472 100.5859 51.4582 -50.5914 6.2873 22.3277
State:	  7.691  12.407  29.428  -0.344  0.939 -0.017 -94.237    101.50   65.63   63.08 -164.12  -87.05  100.59   51.46  -50.59    6.29   22.33

DOCKED: MODEL       85
DOCKED: USER    Run = 85
DOCKED: USER    DPF = D:/Protein_go_brrr/autodock/final/1A3N/heme_Fe/dock.dpf
DOCKED: USER  
DOCKED: USER    Estimated Free Energy of Binding    =  -12.90 kcal/mol  [=(1)+(2)+(3)-(4)]
DOCKED: USER    Estimated Inhibition Constant, Ki   =  349.99 pM (picomolar)  [Temperature = 298.15 K]
DOCKED: USER    
DOCKED: USER    (1) Final Intermolecular Energy     =  -15.88 kcal/mol
DOCKED: USER        vdW + Hbond + desolv Energy     =  -13.65 kcal/mol
DOCKED: USER        Electrostatic Energy            =   -2.23 kcal/mol
DOCKED: USER    (2) Final Total Internal Energy     =   -1.96 kcal/mol
DOCKED: USER    (3) Torsional Free Energy           =   +2.98 kcal/mol
DOCKED: USER    (4) Unbound System's Energy  [=(2)] =   -1.96 kcal/mol
DOCKED: USER    
DOCKED: USER    
DOCKED: USER    NEWDPF move heme_Fe_opt.pdbqt
DOCKED: USER    NEWDPF about -0.174000 -0.001000 -0.047000
DOCKED: USER    NEWDPF tran0 7.690731 12.407467 29.428134
DOCKED: USER    NEWDPF quaternion0 -0.251735 0.688045 -0.012693 -0.680487
DOCKED: USER    NEWDPF axisangle0 -0.343543 0.938977 -0.017322 -94.236521
DOCKED: USER    NEWDPF quat0 -0.343543 0.938977 -0.017322 -94.236521
DOCKED: USER    NEWDPF dihe0 101.50 65.63 63.08 -164.12 -87.05 100.59 51.46 -50.59 6.29 22.33 
DOCKED: USER  keepresnum = 1 
DOCKED: USER  
DOCKED: REMARK  10 active torsions:
DOCKED: REMARK  status: ('A' for Active; 'I' for Inactive)
DOCKED: REMARK    1  A    between atoms: C_6  and  C_10 
DOCKED: REMARK    2  A    between atoms: C_10  and  C_11 
DOCKED: REMARK    3  A    between atoms: C_11  and  C_12 
DOCKED: REMARK    4  A    between atoms: C_12  and  O_14 
DOCKED: REMARK    5  A    between atoms: C_17  and  C_20 
DOCKED: REMARK    6  A    between atoms: C_24  and  C_27 
DOCKED: REMARK    7  A    between atoms: C_31  and  C_34 
DOCKED: REMARK    8  A    between atoms: C_34  and  C_35 
DOCKED: REMARK    9  A    between atoms: C_35  and  C_36 
DOCKED: REMARK   10  A    between atoms: C_36  and  O_38 
DOCKED: USER                              x       y       z     vdW  Elec       q    Type
DOCKED: USER                           _______ _______ _______ _____ _____    ______ ____
DOCKED: ROOT
DOCKED: ATOM      1  C   UNL d   1       8.107  13.249  31.253 -0.26 +0.02    +0.064 C 
DOCKED: ATOM      2  C   UNL d   1       9.212   8.956  29.068 -0.34 +0.01    +0.064 A 
DOCKED: ATOM      3  C   UNL d   1       7.862  10.830  24.857 -0.37 +0.00    +0.064 C 
DOCKED: ATOM      4  C   UNL d   1       6.688  14.960  26.968 -0.47 +0.01    +0.064 C 
DOCKED: ATOM      5  C   UNL d   1       8.464  11.840  31.041 -0.23 +0.02    +0.066 A 
DOCKED: ATOM      6  C   UNL d   1       8.799  10.949  32.048 -0.33 -0.01    -0.021 A 
DOCKED: ATOM      7  C   UNL d   1       9.109   9.758  31.440 -0.40 -0.01    -0.025 A 
DOCKED: ATOM      8  C   UNL d   1       8.951   9.968  30.084 -0.38 +0.02    +0.066 A 
DOCKED: ATOM      9  C   UNL d   1       9.514   8.493  32.132 -0.49 +0.02    +0.051 C 
DOCKED: ATOM     10  C   UNL d   1       9.012   9.114  27.758 -0.39 +0.01    +0.066 A 
DOCKED: ATOM     11  C   UNL d   1       9.379   8.166  26.799 -0.41 -0.00    -0.021 A 
DOCKED: ATOM     12  C   UNL d   1       9.016   8.691  25.574 -0.46 +0.00    +0.000 A 
DOCKED: ATOM     13  C   UNL d   1       8.448   9.946  25.852 -0.36 +0.01    +0.070 A 
DOCKED: ATOM     14  C   UNL d   1      10.102   6.856  27.031 -0.35 +0.01    +0.052 C 
DOCKED: ATOM     15  C   UNL d   1       7.362  12.062  25.112 -0.35 +0.00    +0.066 A 
DOCKED: ATOM     16  C   UNL d   1       6.720  12.835  24.152 -0.36 -0.00    -0.021 A 
DOCKED: ATOM     17  C   UNL d   1       6.384  14.028  24.758 -0.41 +0.00    +0.000 A 
DOCKED: ATOM     18  C   UNL d   1       6.832  13.956  26.075 -0.37 +0.01    +0.070 A 
DOCKED: ATOM     19  C   UNL d   1       6.455  12.478  22.714 -0.42 +0.00    +0.052 C 
DOCKED: ATOM     20  C   UNL d   1       7.092  14.897  28.377 -0.38 +0.01    +0.066 A 
DOCKED: ATOM     21  C   UNL d   1       7.132  15.988  29.257 -0.29 -0.01    -0.025 A 
DOCKED: ATOM     22  C   UNL d   1       7.527  15.476  30.476 -0.32 -0.01    -0.021 A 
DOCKED: ATOM     23  C   UNL d   1       7.717  14.101  30.291 -0.29 +0.02    +0.066 A 
DOCKED: ATOM     24  C   UNL d   1       6.822  17.440  28.975 +0.18 +0.01    +0.051 C 
DOCKED: ATOM     25  N   UNL d   1       8.550  11.232  29.845 -0.22 -0.06    -0.248 N 
DOCKED: ATOM     26  N   UNL d   1       8.454  10.209  27.182 -0.23 -0.03    -0.248 N 
DOCKED: ATOM     27  N   UNL d   1       7.395  12.732  26.306 -0.23 -0.01    -0.248 N 
DOCKED: ATOM     28  N   UNL d   1       7.493  13.762  28.998 -0.21 -0.05    -0.248 N 
DOCKED: ATOM     29 FE   UNL d   1       7.973  11.987  28.089 -0.08 +0.00    +0.000 Fe
DOCKED: ENDROOT
DOCKED: BRANCH   6  30
DOCKED: ATOM     30  C   UNL d   1       8.804  11.208  33.516 -0.29 +0.03    +0.052 C 
DOCKED: BRANCH  30  31
DOCKED: ATOM     31  C   UNL d   1       7.493  10.754  34.149 -0.34 +0.06    +0.115 C 
DOCKED: BRANCH  31  32
DOCKED: ATOM     32  C   UNL d   1       6.899  11.859  34.978 -0.24 +0.11    +0.139 C 
DOCKED: ATOM     33  O   UNL d   1       7.220  12.001  36.150 +0.04 -0.52    -0.650 OA
DOCKED: BRANCH  32  34
DOCKED: ATOM     34  O   UNL d   1       6.006  12.704  34.436 -0.36 -1.04    -0.776 OA
DOCKED: ATOM     35  H   UNL d   1       6.323  13.422  33.870 +0.06 +0.22    +0.167 HD
DOCKED: ENDBRANCH  32  34
DOCKED: ENDBRANCH  31  32
DOCKED: ENDBRANCH  30  31
DOCKED: ENDBRANCH   6  30
DOCKED: BRANCH  22  36
DOCKED: ATOM     36  C   UNL d   1       7.755  16.273  31.733 -0.27 +0.02    +0.052 C 
DOCKED: BRANCH  36  37
DOCKED: ATOM     37  C   UNL d   1       6.811  15.792  32.825 -0.11 +0.10    +0.115 C 
DOCKED: BRANCH  37  38
DOCKED: ATOM     38  C   UNL d   1       7.561  15.482  34.089 -0.11 +0.16    +0.139 C 
DOCKED: ATOM     39  O   UNL d   1       7.579  16.277  35.016 -0.45 -0.86    -0.650 OA
DOCKED: BRANCH  38  40
DOCKED: ATOM     40  O   UNL d   1       8.227  14.319  34.206 +0.06 -0.67    -0.776 OA
DOCKED: ATOM     41  H   UNL d   1       7.934  13.674  34.864 +0.05 +0.16    +0.167 HD
DOCKED: ENDBRANCH  38  40
DOCKED: ENDBRANCH  37  38
DOCKED: ENDBRANCH  36  37
DOCKED: ENDBRANCH  22  36
DOCKED: BRANCH  12  42
DOCKED: ATOM     42  C   UNL d   1       9.230   8.016  24.257 -0.67 +0.00    +0.004 C 
DOCKED: ATOM     43  C   UNL d   1       8.196   7.555  23.542 -0.66 +0.00    +0.012 C 
DOCKED: ENDBRANCH  12  42
DOCKED: BRANCH  17  44
DOCKED: ATOM     44  C   UNL d   1       5.662  15.154  24.124 -0.57 +0.00    +0.004 C 
DOCKED: ATOM     45  C   UNL d   1       6.287  16.305  23.857 -0.58 +0.00    +0.012 C 
DOCKED: ENDBRANCH  17  44
DOCKED: TORSDOF 10
DOCKED: TER
DOCKED: ENDMDL
________________________________________________________________________________


	BEGINNING GENETIC ALGORITHM DOCKING 86 of 100
Run: 86 Seed: 1620427371 36892588 [ Run 86 of 100 GA/GALS ]
Beginning LAMARCKIAN GENETIC ALGORITHM (LGA), with a maximum of 25000000 energy evaluations.

Final-Value: -18.289


	FINAL GENETIC ALGORITHM DOCKED STATE
	_______________________________________________


Detailed state:  trans 7.587 12.671 29.877 quatxyzw 0.269244 -0.684913 0.018701 0.676795 center -0.174 -0.001 -0.047 ntor 10 -88.3264 -105.2251 66.1875 -151.0885 113.1637 -144.6447 71.9288 59.8625 6.8113 112.2782
State:	  7.587  12.671  29.877   0.366 -0.930  0.025 94.813    -88.33 -105.23   66.19 -151.09  113.16 -144.64   71.93   59.86    6.81  112.28

DOCKED: MODEL       86
DOCKED: USER    Run = 86
DOCKED: USER    DPF = D:/Protein_go_brrr/autodock/final/1A3N/heme_Fe/dock.dpf
DOCKED: USER  
DOCKED: USER    Estimated Free Energy of Binding    =  -13.25 kcal/mol  [=(1)+(2)+(3)-(4)]
DOCKED: USER    Estimated Inhibition Constant, Ki   =  192.61 pM (picomolar)  [Temperature = 298.15 K]
DOCKED: USER    
DOCKED: USER    (1) Final Intermolecular Energy     =  -16.24 kcal/mol
DOCKED: USER        vdW + Hbond + desolv Energy     =  -13.21 kcal/mol
DOCKED: USER        Electrostatic Energy            =   -3.03 kcal/mol
DOCKED: USER    (2) Final Total Internal Energy     =   -2.05 kcal/mol
DOCKED: USER    (3) Torsional Free Energy           =   +2.98 kcal/mol
DOCKED: USER    (4) Unbound System's Energy  [=(2)] =   -2.05 kcal/mol
DOCKED: USER    
DOCKED: USER    
DOCKED: USER    NEWDPF move heme_Fe_opt.pdbqt
DOCKED: USER    NEWDPF about -0.174000 -0.001000 -0.047000
DOCKED: USER    NEWDPF tran0 7.587178 12.670934 29.877347
DOCKED: USER    NEWDPF quaternion0 0.269244 -0.684913 0.018701 0.676795
DOCKED: USER    NEWDPF axisangle0 0.365735 -0.930372 0.025403 94.812557
DOCKED: USER    NEWDPF quat0 0.365735 -0.930372 0.025403 94.812557
DOCKED: USER    NEWDPF dihe0 -88.33 -105.23 66.19 -151.09 113.16 -144.64 71.93 59.86 6.81 112.28 
DOCKED: USER  keepresnum = 1 
DOCKED: USER  
DOCKED: REMARK  10 active torsions:
DOCKED: REMARK  status: ('A' for Active; 'I' for Inactive)
DOCKED: REMARK    1  A    between atoms: C_6  and  C_10 
DOCKED: REMARK    2  A    between atoms: C_10  and  C_11 
DOCKED: REMARK    3  A    between atoms: C_11  and  C_12 
DOCKED: REMARK    4  A    between atoms: C_12  and  O_14 
DOCKED: REMARK    5  A    between atoms: C_17  and  C_20 
DOCKED: REMARK    6  A    between atoms: C_24  and  C_27 
DOCKED: REMARK    7  A    between atoms: C_31  and  C_34 
DOCKED: REMARK    8  A    between atoms: C_34  and  C_35 
DOCKED: REMARK    9  A    between atoms: C_35  and  C_36 
DOCKED: REMARK   10  A    between atoms: C_36  and  O_38 
DOCKED: USER                              x       y       z     vdW  Elec       q    Type
DOCKED: USER                           _______ _______ _______ _____ _____    ______ ____
DOCKED: ROOT
DOCKED: ATOM      1  C   UNL d   1       7.985  13.582  31.673 -0.29 +0.03    +0.064 C 
DOCKED: ATOM      2  C   UNL d   1       9.168   9.236  29.637 -0.37 +0.02    +0.064 A 
DOCKED: ATOM      3  C   UNL d   1       7.795  10.943  25.363 -0.38 +0.00    +0.064 C 
DOCKED: ATOM      4  C   UNL d   1       6.545  15.120  27.330 -0.48 +0.01    +0.064 C 
DOCKED: ATOM      5  C   UNL d   1       8.367  12.172  31.510 -0.18 +0.02    +0.066 A 
DOCKED: ATOM      6  C   UNL d   1       8.715  11.322  32.547 -0.30 -0.01    -0.021 A 
DOCKED: ATOM      7  C   UNL d   1       9.047  10.117  31.981 -0.37 -0.01    -0.025 A 
DOCKED: ATOM      8  C   UNL d   1       8.889  10.277  30.618 -0.36 +0.02    +0.066 A 
DOCKED: ATOM      9  C   UNL d   1       9.472   8.883  32.716 -0.47 +0.02    +0.051 C 
DOCKED: ATOM     10  C   UNL d   1       8.969   9.346  28.322 -0.39 +0.01    +0.066 A 
DOCKED: ATOM     11  C   UNL d   1       9.354   8.373  27.396 -0.40 -0.00    -0.021 A 
DOCKED: ATOM     12  C   UNL d   1       8.984   8.849  26.154 -0.43 +0.00    +0.000 A 
DOCKED: ATOM     13  C   UNL d   1       8.395  10.103  26.388 -0.35 +0.01    +0.070 A 
DOCKED: ATOM     14  C   UNL d   1      10.100   7.084  27.674 -0.33 +0.01    +0.052 C 
DOCKED: ATOM     15  C   UNL d   1       7.273  12.173  25.575 -0.35 +0.00    +0.066 A 
DOCKED: ATOM     16  C   UNL d   1       6.620  12.901  24.589 -0.36 -0.00    -0.021 A 
DOCKED: ATOM     17  C   UNL d   1       6.262  14.108  25.153 -0.41 +0.00    +0.000 A 
DOCKED: ATOM     18  C   UNL d   1       6.709  14.090  26.472 -0.35 +0.01    +0.070 A 
DOCKED: ATOM     19  C   UNL d   1       6.364  12.492  23.163 -0.38 +0.00    +0.052 C 
DOCKED: ATOM     20  C   UNL d   1       6.947  15.113  28.742 -0.38 +0.01    +0.066 A 
DOCKED: ATOM     21  C   UNL d   1       6.967  16.233  29.584 -0.30 -0.01    -0.025 A 
DOCKED: ATOM     22  C   UNL d   1       7.368  15.770  30.820 -0.31 -0.01    -0.021 A 
DOCKED: ATOM     23  C   UNL d   1       7.582  14.393  30.682 -0.28 +0.02    +0.066 A 
DOCKED: ATOM     24  C   UNL d   1       6.632  17.669  29.252 +0.01 +0.01    +0.051 C 
DOCKED: ATOM     25  N   UNL d   1       8.466  11.526  30.335 -0.20 -0.07    -0.248 N 
DOCKED: ATOM     26  N   UNL d   1       8.393  10.411  27.709 -0.24 -0.04    -0.248 N 
DOCKED: ATOM     27  N   UNL d   1       7.292  12.884  26.745 -0.23 -0.02    -0.248 N 
DOCKED: ATOM     28  N   UNL d   1       7.367  14.006  29.401 -0.20 -0.06    -0.248 N 
DOCKED: ATOM     29 FE   UNL d   1       7.880  12.210  28.554 -0.08 +0.00    +0.000 Fe
DOCKED: ENDROOT
DOCKED: BRANCH   6  30
DOCKED: ATOM     30  C   UNL d   1       8.713  11.631  34.005 -0.24 +0.03    +0.052 C 
DOCKED: BRANCH  30  31
DOCKED: ATOM     31  C   UNL d   1       7.414  11.165  34.654 -0.28 +0.07    +0.115 C 
DOCKED: BRANCH  31  32
DOCKED: ATOM     32  C   UNL d   1       6.551  12.343  35.011 -0.23 +0.15    +0.139 C 
DOCKED: ATOM     33  O   UNL d   1       5.487  12.532  34.438 -0.60 -0.88    -0.650 OA
DOCKED: BRANCH  32  34
DOCKED: ATOM     34  O   UNL d   1       6.943  13.203  35.966 +0.06 -1.03    -0.776 OA
DOCKED: ATOM     35  H   UNL d   1       7.456  13.983  35.713 +0.03 +0.23    +0.167 HD
DOCKED: ENDBRANCH  32  34
DOCKED: ENDBRANCH  31  32
DOCKED: ENDBRANCH  30  31
DOCKED: ENDBRANCH   6  30
DOCKED: BRANCH  22  36
DOCKED: ATOM     36  C   UNL d   1       7.580  16.613  32.049 -0.26 +0.02    +0.052 C 
DOCKED: BRANCH  36  37
DOCKED: ATOM     37  C   UNL d   1       8.646  15.978  32.930 -0.15 +0.06    +0.115 C 
DOCKED: BRANCH  37  38
DOCKED: ATOM     38  C   UNL d   1       8.101  15.663  34.294 -0.15 +0.13    +0.139 C 
DOCKED: ATOM     39  O   UNL d   1       8.805  15.768  35.288 -0.01 -0.50    -0.650 OA
DOCKED: BRANCH  38  40
DOCKED: ATOM     40  O   UNL d   1       6.826  15.258  34.430 +0.13 -1.60    -0.776 OA
DOCKED: ATOM     41  H   UNL d   1       6.589  14.356  34.171 +0.05 +0.31    +0.167 HD
DOCKED: ENDBRANCH  38  40
DOCKED: ENDBRANCH  37  38
DOCKED: ENDBRANCH  36  37
DOCKED: ENDBRANCH  22  36
DOCKED: BRANCH  12  42
DOCKED: ATOM     42  C   UNL d   1       9.213   8.134  24.861 -0.60 +0.00    +0.004 C 
DOCKED: ATOM     43  C   UNL d   1       8.185   7.685  24.130 -0.64 +0.00    +0.012 C 
DOCKED: ENDBRANCH  12  42
DOCKED: BRANCH  17  44
DOCKED: ATOM     44  C   UNL d   1       5.522  15.199  24.480 -0.55 +0.00    +0.004 C 
DOCKED: ATOM     45  C   UNL d   1       6.171  16.238  23.944 -0.58 +0.00    +0.012 C 
DOCKED: ENDBRANCH  17  44
DOCKED: TORSDOF 10
DOCKED: TER
DOCKED: ENDMDL
________________________________________________________________________________


	BEGINNING GENETIC ALGORITHM DOCKING 87 of 100
Run: 87 Seed: 1365024505 1710338409 [ Run 87 of 100 GA/GALS ]
Beginning LAMARCKIAN GENETIC ALGORITHM (LGA), with a maximum of 25000000 energy evaluations.

Final-Value: -18.079


	FINAL GENETIC ALGORITHM DOCKED STATE
	_______________________________________________


Detailed state:  trans 8.098 12.844 29.882 quatxyzw 0.649539 0.008704 -0.728028 -0.219086 center -0.174 -0.001 -0.047 ntor 10 -168.8952 110.3815 86.4294 -119.3253 -112.0163 -178.7218 11.9054 77.2731 -40.3211 168.1859
State:	  8.098  12.844  29.882   0.666  0.009 -0.746 -154.689   -168.90  110.38   86.43 -119.33 -112.02 -178.72   11.91   77.27  -40.32  168.19

DOCKED: MODEL       87
DOCKED: USER    Run = 87
DOCKED: USER    DPF = D:/Protein_go_brrr/autodock/final/1A3N/heme_Fe/dock.dpf
DOCKED: USER  
DOCKED: USER    Estimated Free Energy of Binding    =  -13.54 kcal/mol  [=(1)+(2)+(3)-(4)]
DOCKED: USER    Estimated Inhibition Constant, Ki   =  119.54 pM (picomolar)  [Temperature = 298.15 K]
DOCKED: USER    
DOCKED: USER    (1) Final Intermolecular Energy     =  -16.52 kcal/mol
DOCKED: USER        vdW + Hbond + desolv Energy     =  -13.68 kcal/mol
DOCKED: USER        Electrostatic Energy            =   -2.84 kcal/mol
DOCKED: USER    (2) Final Total Internal Energy     =   -1.56 kcal/mol
DOCKED: USER    (3) Torsional Free Energy           =   +2.98 kcal/mol
DOCKED: USER    (4) Unbound System's Energy  [=(2)] =   -1.56 kcal/mol
DOCKED: USER    
DOCKED: USER    
DOCKED: USER    NEWDPF move heme_Fe_opt.pdbqt
DOCKED: USER    NEWDPF about -0.174000 -0.001000 -0.047000
DOCKED: USER    NEWDPF tran0 8.097894 12.844079 29.882200
DOCKED: USER    NEWDPF quaternion0 0.649539 0.008704 -0.728028 -0.219086
DOCKED: USER    NEWDPF axisangle0 0.665712 0.008920 -0.746156 -154.689307
DOCKED: USER    NEWDPF quat0 0.665712 0.008920 -0.746156 -154.689307
DOCKED: USER    NEWDPF dihe0 -168.90 110.38 86.43 -119.33 -112.02 -178.72 11.91 77.27 -40.32 168.19 
DOCKED: USER  keepresnum = 1 
DOCKED: USER  
DOCKED: REMARK  10 active torsions:
DOCKED: REMARK  status: ('A' for Active; 'I' for Inactive)
DOCKED: REMARK    1  A    between atoms: C_6  and  C_10 
DOCKED: REMARK    2  A    between atoms: C_10  and  C_11 
DOCKED: REMARK    3  A    between atoms: C_11  and  C_12 
DOCKED: REMARK    4  A    between atoms: C_12  and  O_14 
DOCKED: REMARK    5  A    between atoms: C_17  and  C_20 
DOCKED: REMARK    6  A    between atoms: C_24  and  C_27 
DOCKED: REMARK    7  A    between atoms: C_31  and  C_34 
DOCKED: REMARK    8  A    between atoms: C_34  and  C_35 
DOCKED: REMARK    9  A    between atoms: C_35  and  C_36 
DOCKED: REMARK   10  A    between atoms: C_36  and  O_38 
DOCKED: USER                              x       y       z     vdW  Elec       q    Type
DOCKED: USER                           _______ _______ _______ _____ _____    ______ ____
DOCKED: ROOT
DOCKED: ATOM      1  C   UNL d   1       7.697  13.349  31.830 -0.20 +0.03    +0.064 C 
DOCKED: ATOM      2  C   UNL d   1       6.561  15.288  27.428 -0.43 +0.01    +0.064 A 
DOCKED: ATOM      3  C   UNL d   1       7.891  11.169  25.348 -0.39 +0.00    +0.064 C 
DOCKED: ATOM      4  C   UNL d   1       9.096   9.310  29.588 -0.43 +0.02    +0.064 C 
DOCKED: ATOM      5  C   UNL d   1       7.332  14.306  30.777 -0.26 +0.02    +0.066 A 
DOCKED: ATOM      6  C   UNL d   1       7.001  15.633  30.994 -0.32 -0.01    -0.021 A 
DOCKED: ATOM      7  C   UNL d   1       6.682  16.170  29.772 -0.37 -0.01    -0.025 A 
DOCKED: ATOM      8  C   UNL d   1       6.832  15.149  28.853 -0.39 +0.01    +0.066 A 
DOCKED: ATOM      9  C   UNL d   1       6.277  17.588  29.508 -0.39 +0.01    +0.051 C 
DOCKED: ATOM     10  C   UNL d   1       6.753  14.336  26.513 -0.38 +0.01    +0.066 A 
DOCKED: ATOM     11  C   UNL d   1       6.376  14.462  25.174 -0.41 -0.00    -0.021 A 
DOCKED: ATOM     12  C   UNL d   1       6.734  13.280  24.556 -0.39 +0.00    +0.000 A 
DOCKED: ATOM     13  C   UNL d   1       7.308  12.484  25.562 -0.35 +0.00    +0.070 A 
DOCKED: ATOM     14  C   UNL d   1       5.649  15.624  24.528 -0.55 +0.00    +0.052 C 
DOCKED: ATOM     15  C   UNL d   1       8.398  10.377  26.322 -0.35 +0.01    +0.066 A 
DOCKED: ATOM     16  C   UNL d   1       9.037   9.170  26.063 -0.42 -0.00    -0.021 A 
DOCKED: ATOM     17  C   UNL d   1       9.382   8.631  27.285 -0.41 +0.00    +0.000 A 
DOCKED: ATOM     18  C   UNL d   1       8.941   9.521  28.262 -0.39 +0.01    +0.070 A 
DOCKED: ATOM     19  C   UNL d   1       9.291   8.535  24.723 -0.56 +0.00    +0.052 C 
DOCKED: ATOM     20  C   UNL d   1       8.700  10.251  30.642 -0.35 +0.02    +0.066 A 
DOCKED: ATOM     21  C   UNL d   1       8.670   9.965  32.014 -0.38 -0.01    -0.025 A 
DOCKED: ATOM     22  C   UNL d   1       8.281  11.134  32.635 -0.32 -0.01    -0.021 A 
DOCKED: ATOM     23  C   UNL d   1       8.084  12.080  31.623 -0.02 +0.02    +0.066 A 
DOCKED: ATOM     24  C   UNL d   1       8.984   8.663  32.713 -0.45 +0.02    +0.051 C 
DOCKED: ATOM     25  N   UNL d   1       7.237  14.019  29.467 -0.18 -0.06    -0.248 N 
DOCKED: ATOM     26  N   UNL d   1       7.312  13.123  26.757 -0.23 -0.02    -0.248 N 
DOCKED: ATOM     27  N   UNL d   1       8.375  10.615  27.670 -0.24 -0.03    -0.248 N 
DOCKED: ATOM     28  N   UNL d   1       8.298  11.524  30.406 +0.05 -0.07    -0.248 N 
DOCKED: ATOM     29 FE   UNL d   1       7.805  12.322  28.582 -0.08 +0.00    +0.000 Fe
DOCKED: ENDROOT
DOCKED: BRANCH   6  30
DOCKED: ATOM     30  C   UNL d   1       7.006  16.363  32.294 -0.25 +0.03    +0.052 C 
DOCKED: BRANCH  30  31
DOCKED: ATOM     31  C   UNL d   1       8.316  16.130  33.039 -0.19 +0.07    +0.115 C 
DOCKED: BRANCH  31  32
DOCKED: ATOM     32  C   UNL d   1       8.209  16.617  34.457 -0.13 +0.11    +0.139 C 
DOCKED: ATOM     33  O   UNL d   1       8.852  17.587  34.833 +0.00 -0.33    -0.650 OA
DOCKED: BRANCH  32  34
DOCKED: ATOM     34  O   UNL d   1       7.401  15.989  35.327 -0.43 -1.26    -0.776 OA
DOCKED: ATOM     35  H   UNL d   1       7.020  15.134  35.081 +0.04 +0.38    +0.167 HD
DOCKED: ENDBRANCH  32  34
DOCKED: ENDBRANCH  31  32
DOCKED: ENDBRANCH  30  31
DOCKED: ENDBRANCH   6  30
DOCKED: BRANCH  22  36
DOCKED: ATOM     36  C   UNL d   1       8.063  11.313  34.115 -0.29 +0.03    +0.052 C 
DOCKED: BRANCH  36  37
DOCKED: ATOM     37  C   UNL d   1       6.592  11.112  34.446 -0.34 +0.07    +0.115 C 
DOCKED: BRANCH  37  38
DOCKED: ATOM     38  C   UNL d   1       5.909  12.429  34.685 -0.22 +0.17    +0.139 C 
DOCKED: ATOM     39  O   UNL d   1       4.725  12.474  34.987 -0.54 -1.04    -0.650 OA
DOCKED: BRANCH  38  40
DOCKED: ATOM     40  O   UNL d   1       6.601  13.576  34.565 -0.03 -1.30    -0.776 OA
DOCKED: ATOM     41  H   UNL d   1       7.278  13.788  35.222 +0.04 +0.23    +0.167 HD
DOCKED: ENDBRANCH  38  40
DOCKED: ENDBRANCH  37  38
DOCKED: ENDBRANCH  36  37
DOCKED: ENDBRANCH  22  36
DOCKED: BRANCH  12  42
DOCKED: ATOM     42  C   UNL d   1       6.508  12.967  23.111 -0.46 +0.00    +0.004 C 
DOCKED: ATOM     43  C   UNL d   1       7.477  12.422  22.364 -0.48 +0.00    +0.012 C 
DOCKED: ENDBRANCH  12  42
DOCKED: BRANCH  17  44
DOCKED: ATOM     44  C   UNL d   1      10.104   7.357  27.503 -0.20 +0.00    +0.004 C 
DOCKED: ATOM     45  C   UNL d   1       9.549   6.189  27.165 -0.63 +0.00    +0.012 C 
DOCKED: ENDBRANCH  17  44
DOCKED: TORSDOF 10
DOCKED: TER
DOCKED: ENDMDL
________________________________________________________________________________


	BEGINNING GENETIC ALGORITHM DOCKING 88 of 100
Run: 88 Seed: 1385186782 765188036 [ Run 88 of 100 GA/GALS ]
Beginning LAMARCKIAN GENETIC ALGORITHM (LGA), with a maximum of 25000000 energy evaluations.

Final-Value: -17.764


	FINAL GENETIC ALGORITHM DOCKED STATE
	_______________________________________________


Detailed state:  trans 2.879 -6.532 -4.454 quatxyzw -0.256349 -0.719083 -0.097546 -0.638506 center -0.174 -0.001 -0.047 ntor 10 -0.2856 -172.6701 92.3069 -145.0598 -149.7324 -97.0718 -77.4259 9.1980 -174.4828 171.2646
State:	  2.879  -6.532  -4.454  -0.333 -0.934 -0.127 -100.639     -0.29 -172.67   92.31 -145.06 -149.73  -97.07  -77.43    9.20 -174.48  171.26

DOCKED: MODEL       88
DOCKED: USER    Run = 88
DOCKED: USER    DPF = D:/Protein_go_brrr/autodock/final/1A3N/heme_Fe/dock.dpf
DOCKED: USER  
DOCKED: USER    Estimated Free Energy of Binding    =  -12.64 kcal/mol  [=(1)+(2)+(3)-(4)]
DOCKED: USER    Estimated Inhibition Constant, Ki   =  540.52 pM (picomolar)  [Temperature = 298.15 K]
DOCKED: USER    
DOCKED: USER    (1) Final Intermolecular Energy     =  -15.63 kcal/mol
DOCKED: USER        vdW + Hbond + desolv Energy     =  -13.99 kcal/mol
DOCKED: USER        Electrostatic Energy            =   -1.64 kcal/mol
DOCKED: USER    (2) Final Total Internal Energy     =   -2.14 kcal/mol
DOCKED: USER    (3) Torsional Free Energy           =   +2.98 kcal/mol
DOCKED: USER    (4) Unbound System's Energy  [=(2)] =   -2.14 kcal/mol
DOCKED: USER    
DOCKED: USER    
DOCKED: USER    NEWDPF move heme_Fe_opt.pdbqt
DOCKED: USER    NEWDPF about -0.174000 -0.001000 -0.047000
DOCKED: USER    NEWDPF tran0 2.878841 -6.532021 -4.454498
DOCKED: USER    NEWDPF quaternion0 -0.256349 -0.719083 -0.097546 -0.638506
DOCKED: USER    NEWDPF axisangle0 -0.333086 -0.934339 -0.126746 -100.639035
DOCKED: USER    NEWDPF quat0 -0.333086 -0.934339 -0.126746 -100.639035
DOCKED: USER    NEWDPF dihe0 -0.29 -172.67 92.31 -145.06 -149.73 -97.07 -77.43 9.20 -174.48 171.26 
DOCKED: USER  keepresnum = 1 
DOCKED: USER  
DOCKED: REMARK  10 active torsions:
DOCKED: REMARK  status: ('A' for Active; 'I' for Inactive)
DOCKED: REMARK    1  A    between atoms: C_6  and  C_10 
DOCKED: REMARK    2  A    between atoms: C_10  and  C_11 
DOCKED: REMARK    3  A    between atoms: C_11  and  C_12 
DOCKED: REMARK    4  A    between atoms: C_12  and  O_14 
DOCKED: REMARK    5  A    between atoms: C_17  and  C_20 
DOCKED: REMARK    6  A    between atoms: C_24  and  C_27 
DOCKED: REMARK    7  A    between atoms: C_31  and  C_34 
DOCKED: REMARK    8  A    between atoms: C_34  and  C_35 
DOCKED: REMARK    9  A    between atoms: C_35  and  C_36 
DOCKED: REMARK   10  A    between atoms: C_36  and  O_38 
DOCKED: USER                              x       y       z     vdW  Elec       q    Type
DOCKED: USER                           _______ _______ _______ _____ _____    ______ ____
DOCKED: ROOT
DOCKED: ATOM      1  C   UNL d   1       2.493  -6.817  -6.450 -0.30 +0.02    +0.064 C 
DOCKED: ATOM      2  C   UNL d   1       0.827  -8.841  -2.259 -0.38 +0.00    +0.064 A 
DOCKED: ATOM      3  C   UNL d   1       2.740  -5.178   0.189 -0.41 +0.00    +0.064 C 
DOCKED: ATOM      4  C   UNL d   1       4.452  -3.257  -3.844 -0.49 +0.01    +0.064 C 
DOCKED: ATOM      5  C   UNL d   1       1.919  -7.769  -5.489 -0.32 +0.01    +0.066 A 
DOCKED: ATOM      6  C   UNL d   1       1.376  -8.999  -5.824 -0.31 -0.00    -0.021 A 
DOCKED: ATOM      7  C   UNL d   1       0.910  -9.559  -4.660 -0.32 -0.00    -0.025 A 
DOCKED: ATOM      8  C   UNL d   1       1.188  -8.648  -3.659 -0.30 +0.01    +0.066 A 
DOCKED: ATOM      9  C   UNL d   1       0.256 -10.899  -4.525 -0.21 +0.01    +0.051 C 
DOCKED: ATOM     10  C   UNL d   1       1.134  -8.005  -1.266 -0.37 +0.00    +0.066 A 
DOCKED: ATOM     11  C   UNL d   1       0.676  -8.160   0.045 -0.44 -0.00    -0.021 A 
DOCKED: ATOM     12  C   UNL d   1       1.200  -7.107   0.768 -0.34 +0.00    +0.000 A 
DOCKED: ATOM     13  C   UNL d   1       1.951  -6.352  -0.150 -0.37 +0.00    +0.070 A 
DOCKED: ATOM     14  C   UNL d   1      -0.270  -9.220   0.570 -0.57 -0.00    +0.052 C 
DOCKED: ATOM     15  C   UNL d   1       3.422  -4.419  -0.700 -0.37 +0.00    +0.066 A 
DOCKED: ATOM     16  C   UNL d   1       4.244  -3.364  -0.324 -0.47 -0.00    -0.021 A 
DOCKED: ATOM     17  C   UNL d   1       4.736  -2.806  -1.486 -0.48 +0.00    +0.000 A 
DOCKED: ATOM     18  C   UNL d   1       4.198  -3.533  -2.546 -0.39 +0.01    +0.070 A 
DOCKED: ATOM     19  C   UNL d   1       4.538  -2.881   1.071 -0.48 +0.00    +0.052 C 
DOCKED: ATOM     20  C   UNL d   1       3.953  -4.036  -4.983 -0.41 +0.01    +0.066 A 
DOCKED: ATOM     21  C   UNL d   1       4.040  -3.651  -6.329 -0.44 -0.00    -0.025 A 
DOCKED: ATOM     22  C   UNL d   1       3.487  -4.686  -7.054 -0.35 -0.00    -0.021 A 
DOCKED: ATOM     23  C   UNL d   1       3.081  -5.654  -6.128 -0.29 +0.01    +0.066 A 
DOCKED: ATOM     24  C   UNL d   1       4.606  -2.376  -6.910 -0.26 -0.00    +0.051 C 
DOCKED: ATOM     25  N   UNL d   1       1.810  -7.565  -4.165 -0.22 -0.03    -0.248 N 
DOCKED: ATOM     26  N   UNL d   1       1.904  -6.895  -1.392 -0.24 +0.00    -0.248 N 
DOCKED: ATOM     27  N   UNL d   1       3.425  -4.551  -2.063 -0.23 -0.01    -0.248 N 
DOCKED: ATOM     28  N   UNL d   1       3.328  -5.232  -4.864 -0.24 -0.05    -0.248 N 
DOCKED: ATOM     29 FE   UNL d   1       2.617  -6.062  -3.128 -0.08 +0.00    +0.000 Fe
DOCKED: ENDROOT
DOCKED: BRANCH   6  30
DOCKED: ATOM     30  C   UNL d   1       1.320  -9.622  -7.176 -0.24 +0.01    +0.052 C 
DOCKED: BRANCH  30  31
DOCKED: ATOM     31  C   UNL d   1       0.097  -9.136  -7.945 -0.18 +0.06    +0.115 C 
DOCKED: BRANCH  31  32
DOCKED: ATOM     32  C   UNL d   1       0.492  -8.100  -8.961 -0.17 +0.10    +0.139 C 
DOCKED: ATOM     33  O   UNL d   1      -0.287  -7.214  -9.283 -0.30 -1.08    -0.650 OA
DOCKED: BRANCH  32  34
DOCKED: ATOM     34  O   UNL d   1       1.710  -8.140  -9.527 +0.05 -0.31    -0.776 OA
DOCKED: ATOM     35  H   UNL d   1       1.946  -7.468 -10.182 +0.04 +0.07    +0.167 HD
DOCKED: ENDBRANCH  32  34
DOCKED: ENDBRANCH  31  32
DOCKED: ENDBRANCH  30  31
DOCKED: ENDBRANCH   6  30
DOCKED: BRANCH  22  36
DOCKED: ATOM     36  C   UNL d   1       3.315  -4.717  -8.550 -0.29 +0.01    +0.052 C 
DOCKED: BRANCH  36  37
DOCKED: ATOM     37  C   UNL d   1       1.946  -4.168  -8.921 -0.32 +0.05    +0.115 C 
DOCKED: BRANCH  37  38
DOCKED: ATOM     38  C   UNL d   1       1.661  -4.372 -10.382 -0.19 +0.07    +0.139 C 
DOCKED: ATOM     39  O   UNL d   1       1.856  -3.474 -11.189 +0.03 -0.23    -0.650 OA
DOCKED: BRANCH  38  40
DOCKED: ATOM     40  O   UNL d   1       1.184  -5.552 -10.815 +0.00 -0.50    -0.776 OA
DOCKED: ATOM     41  H   UNL d   1       0.931  -6.223 -10.165 +0.04 +0.14    +0.167 HD
DOCKED: ENDBRANCH  38  40
DOCKED: ENDBRANCH  37  38
DOCKED: ENDBRANCH  36  37
DOCKED: ENDBRANCH  22  36
DOCKED: BRANCH  12  42
DOCKED: ATOM     42  C   UNL d   1       0.961  -6.865   2.224 -0.51 +0.00    +0.004 C 
DOCKED: ATOM     43  C   UNL d   1       1.947  -6.438   3.024 -0.53 +0.00    +0.012 C 
DOCKED: ENDBRANCH  12  42
DOCKED: BRANCH  17  44
DOCKED: ATOM     44  C   UNL d   1       5.676  -1.666  -1.575 -0.62 +0.00    +0.004 C 
DOCKED: ATOM     45  C   UNL d   1       5.224  -0.411  -1.668 -0.70 +0.00    +0.012 C 
DOCKED: ENDBRANCH  17  44
DOCKED: TORSDOF 10
DOCKED: TER
DOCKED: ENDMDL
________________________________________________________________________________


	BEGINNING GENETIC ALGORITHM DOCKING 89 of 100
Run: 89 Seed: 1364325608 2010570745 [ Run 89 of 100 GA/GALS ]
Beginning LAMARCKIAN GENETIC ALGORITHM (LGA), with a maximum of 25000000 energy evaluations.

Final-Value: -17.012


	FINAL GENETIC ALGORITHM DOCKED STATE
	_______________________________________________


Detailed state:  trans 7.297 13.156 30.545 quatxyzw 0.286004 -0.654048 0.030841 0.699623 center -0.174 -0.001 -0.047 ntor 10 -80.8836 62.6197 69.5767 -128.2580 38.1179 166.9925 -128.0945 63.8820 -46.5795 146.3444
State:	  7.297  13.156  30.545   0.400 -0.915  0.043 91.206    -80.88   62.62   69.58 -128.26   38.12  166.99 -128.09   63.88  -46.58  146.34

DOCKED: MODEL       89
DOCKED: USER    Run = 89
DOCKED: USER    DPF = D:/Protein_go_brrr/autodock/final/1A3N/heme_Fe/dock.dpf
DOCKED: USER  
DOCKED: USER    Estimated Free Energy of Binding    =  -13.39 kcal/mol  [=(1)+(2)+(3)-(4)]
DOCKED: USER    Estimated Inhibition Constant, Ki   =  154.14 pM (picomolar)  [Temperature = 298.15 K]
DOCKED: USER    
DOCKED: USER    (1) Final Intermolecular Energy     =  -16.37 kcal/mol
DOCKED: USER        vdW + Hbond + desolv Energy     =  -14.14 kcal/mol
DOCKED: USER        Electrostatic Energy            =   -2.23 kcal/mol
DOCKED: USER    (2) Final Total Internal Energy     =   -0.64 kcal/mol
DOCKED: USER    (3) Torsional Free Energy           =   +2.98 kcal/mol
DOCKED: USER    (4) Unbound System's Energy  [=(2)] =   -0.64 kcal/mol
DOCKED: USER    
DOCKED: USER    
DOCKED: USER    NEWDPF move heme_Fe_opt.pdbqt
DOCKED: USER    NEWDPF about -0.174000 -0.001000 -0.047000
DOCKED: USER    NEWDPF tran0 7.296641 13.155771 30.545269
DOCKED: USER    NEWDPF quaternion0 0.286004 -0.654048 0.030841 0.699623
DOCKED: USER    NEWDPF axisangle0 0.400279 -0.915376 0.043164 91.206483
DOCKED: USER    NEWDPF quat0 0.400279 -0.915376 0.043164 91.206483
DOCKED: USER    NEWDPF dihe0 -80.88 62.62 69.58 -128.26 38.12 166.99 -128.09 63.88 -46.58 146.34 
DOCKED: USER  keepresnum = 1 
DOCKED: USER  
DOCKED: REMARK  10 active torsions:
DOCKED: REMARK  status: ('A' for Active; 'I' for Inactive)
DOCKED: REMARK    1  A    between atoms: C_6  and  C_10 
DOCKED: REMARK    2  A    between atoms: C_10  and  C_11 
DOCKED: REMARK    3  A    between atoms: C_11  and  C_12 
DOCKED: REMARK    4  A    between atoms: C_12  and  O_14 
DOCKED: REMARK    5  A    between atoms: C_17  and  C_20 
DOCKED: REMARK    6  A    between atoms: C_24  and  C_27 
DOCKED: REMARK    7  A    between atoms: C_31  and  C_34 
DOCKED: REMARK    8  A    between atoms: C_34  and  C_35 
DOCKED: REMARK    9  A    between atoms: C_35  and  C_36 
DOCKED: REMARK   10  A    between atoms: C_36  and  O_38 
DOCKED: USER                              x       y       z     vdW  Elec       q    Type
DOCKED: USER                           _______ _______ _______ _____ _____    ______ ____
DOCKED: ROOT
DOCKED: ATOM      1  C   UNL d   1       7.530  14.125  32.339 -0.29 +0.04    +0.064 C 
DOCKED: ATOM      2  C   UNL d   1       8.970   9.756  30.530 -0.38 +0.02    +0.064 A 
DOCKED: ATOM      3  C   UNL d   1       7.901  11.311  26.113 -0.39 +0.00    +0.064 C 
DOCKED: ATOM      4  C   UNL d   1       6.404  15.508  27.854 -0.50 +0.01    +0.064 C 
DOCKED: ATOM      5  C   UNL d   1       7.956  12.721  32.248 -0.23 +0.03    +0.066 A 
DOCKED: ATOM      6  C   UNL d   1       8.240  11.909  33.334 -0.25 -0.01    -0.021 A 
DOCKED: ATOM      7  C   UNL d   1       8.644  10.697  32.830 -0.33 -0.01    -0.025 A 
DOCKED: ATOM      8  C   UNL d   1       8.590  10.816  31.455 -0.32 +0.02    +0.066 A 
DOCKED: ATOM      9  C   UNL d   1       9.037   9.495  33.632 -0.40 +0.03    +0.051 C 
DOCKED: ATOM     10  C   UNL d   1       8.873   9.825  29.201 -0.39 +0.01    +0.066 A 
DOCKED: ATOM     11  C   UNL d   1       9.352   8.838  28.337 -0.42 -0.00    -0.021 A 
DOCKED: ATOM     12  C   UNL d   1       9.071   9.270  27.056 -0.43 +0.00    +0.000 A 
DOCKED: ATOM     13  C   UNL d   1       8.436  10.515  27.206 -0.34 +0.01    +0.070 A 
DOCKED: ATOM     14  C   UNL d   1      10.103   7.575  28.710 -0.39 +0.01    +0.052 C 
DOCKED: ATOM     15  C   UNL d   1       7.336  12.534  26.248 -0.35 +0.00    +0.066 A 
DOCKED: ATOM     16  C   UNL d   1       6.747  13.218  25.192 -0.38 -0.00    -0.021 A 
DOCKED: ATOM     17  C   UNL d   1       6.317  14.430  25.691 -0.42 +0.00    +0.000 A 
DOCKED: ATOM     18  C   UNL d   1       6.659  14.459  27.042 -0.37 +0.01    +0.070 A 
DOCKED: ATOM     19  C   UNL d   1       6.614  12.763  23.764 -0.39 +0.00    +0.052 C 
DOCKED: ATOM     20  C   UNL d   1       6.693  15.549  29.292 -0.38 +0.01    +0.066 A 
DOCKED: ATOM     21  C   UNL d   1       6.620  16.692  30.101 -0.33 -0.01    -0.025 A 
DOCKED: ATOM     22  C   UNL d   1       6.933  16.273  31.377 -0.29 -0.01    -0.021 A 
DOCKED: ATOM     23  C   UNL d   1       7.189  14.898  31.297 -0.29 +0.03    +0.066 A 
DOCKED: ATOM     24  C   UNL d   1       6.280  18.109  29.702 -0.35 +0.01    +0.051 C 
DOCKED: ATOM     25  N   UNL d   1       8.162  12.046  31.104 +0.02 -0.08    -0.248 N 
DOCKED: ATOM     26  N   UNL d   1       8.323  10.858  28.513 -0.24 -0.04    -0.248 N 
DOCKED: ATOM     27  N   UNL d   1       7.246  13.276  27.395 -0.23 -0.02    -0.248 N 
DOCKED: ATOM     28  N   UNL d   1       7.085  14.472  30.015 -0.20 -0.07    -0.248 N 
DOCKED: ATOM     29 FE   UNL d   1       7.703  12.667  29.263 -0.08 +0.00    +0.000 Fe
DOCKED: ENDROOT
DOCKED: BRANCH   6  30
DOCKED: ATOM     30  C   UNL d   1       8.115  12.257  34.777 -0.19 +0.04    +0.052 C 
DOCKED: BRANCH  30  31
DOCKED: ATOM     31  C   UNL d   1       6.822  13.022  35.039 -0.15 +0.15    +0.115 C 
DOCKED: BRANCH  31  32
DOCKED: ATOM     32  C   UNL d   1       5.646  12.276  34.471 -0.27 +0.16    +0.139 C 
DOCKED: ATOM     33  O   UNL d   1       5.595  11.055  34.530 -0.03 -0.40    -0.650 OA
DOCKED: BRANCH  32  34
DOCKED: ATOM     34  O   UNL d   1       4.637  12.948  33.892 -0.54 -1.16    -0.776 OA
DOCKED: ATOM     35  H   UNL d   1       4.610  13.015  32.927 -0.40 +0.12    +0.167 HD
DOCKED: ENDBRANCH  32  34
DOCKED: ENDBRANCH  31  32
DOCKED: ENDBRANCH  30  31
DOCKED: ENDBRANCH   6  30
DOCKED: BRANCH  22  36
DOCKED: ATOM     36  C   UNL d   1       7.027  17.154  32.594 -0.21 +0.03    +0.052 C 
DOCKED: BRANCH  36  37
DOCKED: ATOM     37  C   UNL d   1       8.453  17.144  33.126 -0.16 +0.06    +0.115 C 
DOCKED: BRANCH  37  38
DOCKED: ATOM     38  C   UNL d   1       8.507  16.560  34.510 -0.13 +0.10    +0.139 C 
DOCKED: ATOM     39  O   UNL d   1       9.575  16.246  35.014 +0.01 -0.36    -0.650 OA
DOCKED: BRANCH  38  40
DOCKED: ATOM     40  O   UNL d   1       7.371  16.375  35.205 -0.54 -1.15    -0.776 OA
DOCKED: ATOM     41  H   UNL d   1       7.246  16.854  36.036 +0.01 +0.23    +0.167 HD
DOCKED: ENDBRANCH  38  40
DOCKED: ENDBRANCH  37  38
DOCKED: ENDBRANCH  36  37
DOCKED: ENDBRANCH  22  36
DOCKED: BRANCH  12  42
DOCKED: ATOM     42  C   UNL d   1       9.418   8.526  25.806 -0.51 +0.00    +0.004 C 
DOCKED: ATOM     43  C   UNL d   1       8.462   8.090  24.975 -0.56 +0.00    +0.012 C 
DOCKED: ENDBRANCH  12  42
DOCKED: BRANCH  17  44
DOCKED: ATOM     44  C   UNL d   1       5.608  15.484  24.931 -0.54 +0.00    +0.004 C 
DOCKED: ATOM     45  C   UNL d   1       6.261  16.252  24.053 -0.58 +0.00    +0.012 C 
DOCKED: ENDBRANCH  17  44
DOCKED: TORSDOF 10
DOCKED: TER
DOCKED: ENDMDL
________________________________________________________________________________


	BEGINNING GENETIC ALGORITHM DOCKING 90 of 100
Run: 90 Seed: 1573108738 1400829601 [ Run 90 of 100 GA/GALS ]
Beginning LAMARCKIAN GENETIC ALGORITHM (LGA), with a maximum of 25000000 energy evaluations.

Final-Value: -18.526


	FINAL GENETIC ALGORITHM DOCKED STATE
	_______________________________________________


Detailed state:  trans 23.612 -7.000 32.385 quatxyzw -0.029558 0.669639 0.140958 -0.728589 center -0.174 -0.001 -0.047 ntor 10 -69.5821 -100.4621 85.1510 -123.1963 -178.1604 118.8601 66.0468 71.4026 -53.6117 179.2095
State:	 23.612  -7.000  32.385  -0.043  0.978  0.206 -86.464    -69.58 -100.46   85.15 -123.20 -178.16  118.86   66.05   71.40  -53.61  179.21

DOCKED: MODEL       90
DOCKED: USER    Run = 90
DOCKED: USER    DPF = D:/Protein_go_brrr/autodock/final/1A3N/heme_Fe/dock.dpf
DOCKED: USER  
DOCKED: USER    Estimated Free Energy of Binding    =  -13.20 kcal/mol  [=(1)+(2)+(3)-(4)]
DOCKED: USER    Estimated Inhibition Constant, Ki   =  211.39 pM (picomolar)  [Temperature = 298.15 K]
DOCKED: USER    
DOCKED: USER    (1) Final Intermolecular Energy     =  -16.18 kcal/mol
DOCKED: USER        vdW + Hbond + desolv Energy     =  -13.88 kcal/mol
DOCKED: USER        Electrostatic Energy            =   -2.30 kcal/mol
DOCKED: USER    (2) Final Total Internal Energy     =   -2.34 kcal/mol
DOCKED: USER    (3) Torsional Free Energy           =   +2.98 kcal/mol
DOCKED: USER    (4) Unbound System's Energy  [=(2)] =   -2.34 kcal/mol
DOCKED: USER    
DOCKED: USER    
DOCKED: USER    NEWDPF move heme_Fe_opt.pdbqt
DOCKED: USER    NEWDPF about -0.174000 -0.001000 -0.047000
DOCKED: USER    NEWDPF tran0 23.612275 -7.000224 32.384872
DOCKED: USER    NEWDPF quaternion0 -0.029558 0.669639 0.140958 -0.728589
DOCKED: USER    NEWDPF axisangle0 -0.043153 0.977644 0.205793 -86.463589
DOCKED: USER    NEWDPF quat0 -0.043153 0.977644 0.205793 -86.463589
DOCKED: USER    NEWDPF dihe0 -69.58 -100.46 85.15 -123.20 -178.16 118.86 66.05 71.40 -53.61 179.21 
DOCKED: USER  keepresnum = 1 
DOCKED: USER  
DOCKED: REMARK  10 active torsions:
DOCKED: REMARK  status: ('A' for Active; 'I' for Inactive)
DOCKED: REMARK    1  A    between atoms: C_6  and  C_10 
DOCKED: REMARK    2  A    between atoms: C_10  and  C_11 
DOCKED: REMARK    3  A    between atoms: C_11  and  C_12 
DOCKED: REMARK    4  A    between atoms: C_12  and  O_14 
DOCKED: REMARK    5  A    between atoms: C_17  and  C_20 
DOCKED: REMARK    6  A    between atoms: C_24  and  C_27 
DOCKED: REMARK    7  A    between atoms: C_31  and  C_34 
DOCKED: REMARK    8  A    between atoms: C_34  and  C_35 
DOCKED: REMARK    9  A    between atoms: C_35  and  C_36 
DOCKED: REMARK   10  A    between atoms: C_36  and  O_38 
DOCKED: USER                              x       y       z     vdW  Elec       q    Type
DOCKED: USER                           _______ _______ _______ _____ _____    ______ ____
DOCKED: ROOT
DOCKED: ATOM      1  C   UNL d   1      24.016  -7.262  34.380 -0.31 +0.02    +0.064 C 
DOCKED: ATOM      2  C   UNL d   1      24.874  -9.888  30.282 -0.42 +0.00    +0.064 A 
DOCKED: ATOM      3  C   UNL d   1      23.852  -5.998  27.657 -0.43 +0.00    +0.064 C 
DOCKED: ATOM      4  C   UNL d   1      22.914  -3.467  31.607 -0.48 +0.01    +0.064 C 
DOCKED: ATOM      5  C   UNL d   1      24.271  -8.385  33.467 -0.31 +0.01    +0.066 A 
DOCKED: ATOM      6  C   UNL d   1      24.493  -9.693  33.866 -0.29 -0.01    -0.021 A 
DOCKED: ATOM      7  C   UNL d   1      24.735 -10.421  32.727 -0.31 -0.00    -0.025 A 
DOCKED: ATOM      8  C   UNL d   1      24.651  -9.528  31.676 -0.36 +0.01    +0.066 A 
DOCKED: ATOM      9  C   UNL d   1      25.011 -11.892  32.662 -0.21 +0.00    +0.051 C 
DOCKED: ATOM     10  C   UNL d   1      24.743  -9.060  29.244 -0.40 +0.00    +0.066 A 
DOCKED: ATOM     11  C   UNL d   1      25.075  -9.404  27.931 -0.47 -0.00    -0.021 A 
DOCKED: ATOM     12  C   UNL d   1      24.805  -8.293  27.157 -0.43 +0.00    +0.000 A 
DOCKED: ATOM     13  C   UNL d   1      24.326  -7.317  28.048 -0.38 +0.00    +0.070 A 
DOCKED: ATOM     14  C   UNL d   1      25.684 -10.704  27.448 -0.53 -0.00    +0.052 C 
DOCKED: ATOM     15  C   UNL d   1      23.439  -5.037  28.516 -0.38 +0.00    +0.066 A 
DOCKED: ATOM     16  C   UNL d   1      22.900  -3.826  28.098 -0.45 -0.00    -0.021 A 
DOCKED: ATOM     17  C   UNL d   1      22.632  -3.093  29.235 -0.47 +0.00    +0.000 A 
DOCKED: ATOM     18  C   UNL d   1      23.018  -3.874  30.323 -0.40 +0.01    +0.070 A 
DOCKED: ATOM     19  C   UNL d   1      22.669  -3.364  26.684 -0.53 +0.00    +0.052 C 
DOCKED: ATOM     20  C   UNL d   1      23.253  -4.284  32.779 -0.32 +0.01    +0.066 A 
DOCKED: ATOM     21  C   UNL d   1      23.341  -3.813  34.096 -0.35 -0.00    -0.025 A 
DOCKED: ATOM     22  C   UNL d   1      23.643  -4.913  34.871 -0.23 -0.00    -0.021 A 
DOCKED: ATOM     23  C   UNL d   1      23.734  -6.006  34.000 -0.16 +0.01    +0.066 A 
DOCKED: ATOM     24  C   UNL d   1      23.156  -2.403  34.609 -0.45 +0.01    +0.051 C 
DOCKED: ATOM     25  N   UNL d   1      24.359  -8.293  32.129 -0.23 -0.03    -0.248 N 
DOCKED: ATOM     26  N   UNL d   1      24.296  -7.781  29.321 -0.24 -0.00    -0.248 N 
DOCKED: ATOM     27  N   UNL d   1      23.473  -5.085  29.884 -0.25 -0.01    -0.248 N 
DOCKED: ATOM     28  N   UNL d   1      23.539  -5.607  32.720 -0.20 -0.04    -0.248 N 
DOCKED: ATOM     29 FE   UNL d   1      23.917  -6.692  31.021 -0.09 -0.00    +0.000 Fe
DOCKED: ENDROOT
DOCKED: BRANCH   6  30
DOCKED: ATOM     30  C   UNL d   1      24.457 -10.231  35.255 -0.23 +0.02    +0.052 C 
DOCKED: BRANCH  30  31
DOCKED: ATOM     31  C   UNL d   1      23.379  -9.532  36.077 -0.19 +0.03    +0.115 C 
DOCKED: BRANCH  31  32
DOCKED: ATOM     32  C   UNL d   1      24.001  -8.721  37.180 -0.15 +0.07    +0.139 C 
DOCKED: ATOM     33  O   UNL d   1      23.302  -8.107  37.973 +0.01 -0.24    -0.650 OA
DOCKED: BRANCH  32  34
DOCKED: ATOM     34  O   UNL d   1      25.338  -8.663  37.303 -0.42 -0.90    -0.776 OA
DOCKED: ATOM     35  H   UNL d   1      25.793  -7.832  37.105 +0.03 +0.30    +0.167 HD
DOCKED: ENDBRANCH  32  34
DOCKED: ENDBRANCH  31  32
DOCKED: ENDBRANCH  30  31
DOCKED: ENDBRANCH   6  30
DOCKED: BRANCH  22  36
DOCKED: ATOM     36  C   UNL d   1      23.880  -4.904  36.359 -0.23 +0.01    +0.052 C 
DOCKED: BRANCH  36  37
DOCKED: ATOM     37  C   UNL d   1      25.323  -4.518  36.646 -0.22 +0.05    +0.115 C 
DOCKED: BRANCH  37  38
DOCKED: ATOM     38  C   UNL d   1      26.104  -5.696  37.158 -0.18 +0.14    +0.139 C 
DOCKED: ATOM     39  O   UNL d   1      27.073  -6.118  36.545 +0.06 -1.08    -0.650 OA
DOCKED: BRANCH  38  40
DOCKED: ATOM     40  O   UNL d   1      25.735  -6.299  38.303 -0.08 -0.83    -0.776 OA
DOCKED: ATOM     41  H   UNL d   1      24.994  -6.921  38.288 +0.03 +0.14    +0.167 HD
DOCKED: ENDBRANCH  38  40
DOCKED: ENDBRANCH  37  38
DOCKED: ENDBRANCH  36  37
DOCKED: ENDBRANCH  22  36
DOCKED: BRANCH  12  42
DOCKED: ATOM     42  C   UNL d   1      25.022  -8.206  25.680 -0.52 +0.00    +0.004 C 
DOCKED: ATOM     43  C   UNL d   1      24.075  -7.710  24.872 -0.55 +0.00    +0.012 C 
DOCKED: ENDBRANCH  12  42
DOCKED: BRANCH  17  44
DOCKED: ATOM     44  C   UNL d   1      22.027  -1.743  29.280 -0.52 +0.00    +0.004 C 
DOCKED: ATOM     45  C   UNL d   1      22.703  -0.675  28.844 -0.63 +0.00    +0.012 C 
DOCKED: ENDBRANCH  17  44
DOCKED: TORSDOF 10
DOCKED: TER
DOCKED: ENDMDL
________________________________________________________________________________


	BEGINNING GENETIC ALGORITHM DOCKING 91 of 100
Run: 91 Seed: 1523699865 317567937 [ Run 91 of 100 GA/GALS ]
Beginning LAMARCKIAN GENETIC ALGORITHM (LGA), with a maximum of 25000000 energy evaluations.

Final-Value: -16.510


	FINAL GENETIC ALGORITHM DOCKED STATE
	_______________________________________________


Detailed state:  trans 7.632 12.472 29.944 quatxyzw -0.227850 0.693970 0.004612 -0.682985 center -0.174 -0.001 -0.047 ntor 10 7.8751 -62.9675 34.7005 -121.4442 -1.3876 118.4726 -83.0049 -4.8787 168.3263 -47.1802
State:	  7.632  12.472  29.944  -0.312  0.950  0.006 -93.845      7.88  -62.97   34.70 -121.44   -1.39  118.47  -83.00   -4.88  168.33  -47.18

DOCKED: MODEL       91
DOCKED: USER    Run = 91
DOCKED: USER    DPF = D:/Protein_go_brrr/autodock/final/1A3N/heme_Fe/dock.dpf
DOCKED: USER  
DOCKED: USER    Estimated Free Energy of Binding    =  -13.16 kcal/mol  [=(1)+(2)+(3)-(4)]
DOCKED: USER    Estimated Inhibition Constant, Ki   =  224.62 pM (picomolar)  [Temperature = 298.15 K]
DOCKED: USER    
DOCKED: USER    (1) Final Intermolecular Energy     =  -16.15 kcal/mol
DOCKED: USER        vdW + Hbond + desolv Energy     =  -13.40 kcal/mol
DOCKED: USER        Electrostatic Energy            =   -2.75 kcal/mol
DOCKED: USER    (2) Final Total Internal Energy     =   -0.36 kcal/mol
DOCKED: USER    (3) Torsional Free Energy           =   +2.98 kcal/mol
DOCKED: USER    (4) Unbound System's Energy  [=(2)] =   -0.36 kcal/mol
DOCKED: USER    
DOCKED: USER    
DOCKED: USER    NEWDPF move heme_Fe_opt.pdbqt
DOCKED: USER    NEWDPF about -0.174000 -0.001000 -0.047000
DOCKED: USER    NEWDPF tran0 7.632289 12.471710 29.944340
DOCKED: USER    NEWDPF quaternion0 -0.227850 0.693970 0.004612 -0.682985
DOCKED: USER    NEWDPF axisangle0 -0.311939 0.950081 0.006314 -93.845308
DOCKED: USER    NEWDPF quat0 -0.311939 0.950081 0.006314 -93.845308
DOCKED: USER    NEWDPF dihe0 7.88 -62.97 34.70 -121.44 -1.39 118.47 -83.00 -4.88 168.33 -47.18 
DOCKED: USER  keepresnum = 1 
DOCKED: USER  
DOCKED: REMARK  10 active torsions:
DOCKED: REMARK  status: ('A' for Active; 'I' for Inactive)
DOCKED: REMARK    1  A    between atoms: C_6  and  C_10 
DOCKED: REMARK    2  A    between atoms: C_10  and  C_11 
DOCKED: REMARK    3  A    between atoms: C_11  and  C_12 
DOCKED: REMARK    4  A    between atoms: C_12  and  O_14 
DOCKED: REMARK    5  A    between atoms: C_17  and  C_20 
DOCKED: REMARK    6  A    between atoms: C_24  and  C_27 
DOCKED: REMARK    7  A    between atoms: C_31  and  C_34 
DOCKED: REMARK    8  A    between atoms: C_34  and  C_35 
DOCKED: REMARK    9  A    between atoms: C_35  and  C_36 
DOCKED: REMARK   10  A    between atoms: C_36  and  O_38 
DOCKED: USER                              x       y       z     vdW  Elec       q    Type
DOCKED: USER                           _______ _______ _______ _____ _____    ______ ____
DOCKED: ROOT
DOCKED: ATOM      1  C   UNL d   1       8.082  13.202  31.809 -0.28 +0.03    +0.064 C 
DOCKED: ATOM      2  C   UNL d   1       9.105   9.029  29.366 -0.31 +0.01    +0.064 A 
DOCKED: ATOM      3  C   UNL d   1       7.727  11.160  25.288 -0.38 +0.00    +0.064 C 
DOCKED: ATOM      4  C   UNL d   1       6.631  15.174  27.648 -0.48 +0.01    +0.064 C 
DOCKED: ATOM      5  C   UNL d   1       8.418  11.803  31.512 -0.21 +0.02    +0.066 A 
DOCKED: ATOM      6  C   UNL d   1       8.754  10.852  32.461 -0.33 -0.01    -0.021 A 
DOCKED: ATOM      7  C   UNL d   1       9.042   9.694  31.782 -0.40 -0.01    -0.025 A 
DOCKED: ATOM      8  C   UNL d   1       8.870   9.983  30.442 -0.37 +0.02    +0.066 A 
DOCKED: ATOM      9  C   UNL d   1       9.439   8.386  32.395 -0.47 +0.02    +0.051 C 
DOCKED: ATOM     10  C   UNL d   1       8.892   9.264  28.070 -0.39 +0.01    +0.066 A 
DOCKED: ATOM     11  C   UNL d   1       9.234   8.370  27.053 -0.41 -0.00    -0.021 A 
DOCKED: ATOM     12  C   UNL d   1       8.862   8.968  25.866 -0.44 +0.00    +0.000 A 
DOCKED: ATOM     13  C   UNL d   1       8.314  10.213  26.223 -0.35 +0.01    +0.070 A 
DOCKED: ATOM     14  C   UNL d   1       9.944   7.039  27.200 -0.38 +0.01    +0.052 C 
DOCKED: ATOM     15  C   UNL d   1       7.246  12.380  25.620 -0.35 +0.00    +0.066 A 
DOCKED: ATOM     16  C   UNL d   1       6.602  13.214  24.715 -0.37 -0.00    -0.021 A 
DOCKED: ATOM     17  C   UNL d   1       6.288  14.374  25.393 -0.42 +0.00    +0.000 A 
DOCKED: ATOM     18  C   UNL d   1       6.752  14.222  26.697 -0.36 +0.01    +0.070 A 
DOCKED: ATOM     19  C   UNL d   1       6.315  12.945  23.262 -0.41 +0.00    +0.052 C 
DOCKED: ATOM     20  C   UNL d   1       7.052  15.025  29.047 -0.37 +0.01    +0.066 A 
DOCKED: ATOM     21  C   UNL d   1       7.117  16.063  29.988 -0.31 -0.01    -0.025 A 
DOCKED: ATOM     22  C   UNL d   1       7.520  15.476  31.169 -0.29 -0.01    -0.021 A 
DOCKED: ATOM     23  C   UNL d   1       7.691  14.112  30.903 -0.27 +0.02    +0.066 A 
DOCKED: ATOM     24  C   UNL d   1       6.821  17.532  29.794 -0.13 +0.01    +0.051 C 
DOCKED: ATOM     25  N   UNL d   1       8.482  11.264  30.282 -0.21 -0.07    -0.248 N 
DOCKED: ATOM     26  N   UNL d   1       8.340  10.397  27.565 -0.24 -0.03    -0.248 N 
DOCKED: ATOM     27  N   UNL d   1       7.302  12.980  26.850 -0.23 -0.02    -0.248 N 
DOCKED: ATOM     28  N   UNL d   1       7.447  13.851  29.596 -0.17 -0.06    -0.248 N 
DOCKED: ATOM     29 FE   UNL d   1       7.893  12.126  28.580 -0.08 +0.00    +0.000 Fe
DOCKED: ENDROOT
DOCKED: BRANCH   6  30
DOCKED: ATOM     30  C   UNL d   1       8.781  11.025  33.942 -0.29 +0.03    +0.052 C 
DOCKED: BRANCH  30  31
DOCKED: ATOM     31  C   UNL d   1      10.212  11.196  34.440 -0.09 +0.12    +0.115 C 
DOCKED: BRANCH  31  32
DOCKED: ATOM     32  C   UNL d   1      10.539  12.653  34.613 -0.15 +0.16    +0.139 C 
DOCKED: ATOM     33  O   UNL d   1       9.715  13.514  34.338 +0.01 -0.49    -0.650 OA
DOCKED: BRANCH  32  34
DOCKED: ATOM     34  O   UNL d   1      11.745  13.023  35.075 -0.35 -1.53    -0.776 OA
DOCKED: ATOM     35  H   UNL d   1      11.900  13.954  35.289 +0.03 +0.21    +0.167 HD
DOCKED: ENDBRANCH  32  34
DOCKED: ENDBRANCH  31  32
DOCKED: ENDBRANCH  30  31
DOCKED: ENDBRANCH   6  30
DOCKED: BRANCH  22  36
DOCKED: ATOM     36  C   UNL d   1       7.774  16.196  32.467 -0.25 +0.03    +0.052 C 
DOCKED: BRANCH  36  37
DOCKED: ATOM     37  C   UNL d   1       6.591  17.096  32.795 +0.12 +0.08    +0.115 C 
DOCKED: BRANCH  37  38
DOCKED: ATOM     38  C   UNL d   1       6.751  17.723  34.151 -0.07 +0.12    +0.139 C 
DOCKED: ATOM     39  O   UNL d   1       6.820  18.937  34.274 -0.01 -0.33    -0.650 OA
DOCKED: BRANCH  38  40
DOCKED: ATOM     40  O   UNL d   1       6.823  16.945  35.246 -0.53 -1.32    -0.776 OA
DOCKED: ATOM     41  H   UNL d   1       7.634  16.951  35.773 +0.01 +0.18    +0.167 HD
DOCKED: ENDBRANCH  38  40
DOCKED: ENDBRANCH  37  38
DOCKED: ENDBRANCH  36  37
DOCKED: ENDBRANCH  22  36
DOCKED: BRANCH  12  42
DOCKED: ATOM     42  C   UNL d   1       9.052   8.369  24.509 -0.63 +0.00    +0.004 C 
DOCKED: ATOM     43  C   UNL d   1       8.177   7.481  24.019 -0.66 +0.00    +0.012 C 
DOCKED: ENDBRANCH  12  42
DOCKED: BRANCH  17  44
DOCKED: ATOM     44  C   UNL d   1       5.572  15.544  24.834 -0.55 +0.00    +0.004 C 
DOCKED: ATOM     45  C   UNL d   1       6.138  16.307  23.893 -0.59 +0.00    +0.012 C 
DOCKED: ENDBRANCH  17  44
DOCKED: TORSDOF 10
DOCKED: TER
DOCKED: ENDMDL
________________________________________________________________________________


	BEGINNING GENETIC ALGORITHM DOCKING 92 of 100
Run: 92 Seed: 1529971273 256242339 [ Run 92 of 100 GA/GALS ]
Beginning LAMARCKIAN GENETIC ALGORITHM (LGA), with a maximum of 25000000 energy evaluations.

Final-Value: -17.859


	FINAL GENETIC ALGORITHM DOCKED STATE
	_______________________________________________


Detailed state:  trans 8.441 12.510 29.039 quatxyzw 0.584412 0.011300 -0.786394 -0.199796 center -0.174 -0.001 -0.047 ntor 10 -26.2988 146.6603 65.0713 -134.1286 75.4777 -88.3903 -84.2391 13.1807 180.0000 -179.9205
State:	  8.441  12.510  29.039   0.596  0.012 -0.803 -156.950    -26.30  146.66   65.07 -134.13   75.48  -88.39  -84.24   13.18  180.00 -179.92

DOCKED: MODEL       92
DOCKED: USER    Run = 92
DOCKED: USER    DPF = D:/Protein_go_brrr/autodock/final/1A3N/heme_Fe/dock.dpf
DOCKED: USER  
DOCKED: USER    Estimated Free Energy of Binding    =  -12.68 kcal/mol  [=(1)+(2)+(3)-(4)]
DOCKED: USER    Estimated Inhibition Constant, Ki   =  505.66 pM (picomolar)  [Temperature = 298.15 K]
DOCKED: USER    
DOCKED: USER    (1) Final Intermolecular Energy     =  -15.67 kcal/mol
DOCKED: USER        vdW + Hbond + desolv Energy     =  -13.54 kcal/mol
DOCKED: USER        Electrostatic Energy            =   -2.13 kcal/mol
DOCKED: USER    (2) Final Total Internal Energy     =   -2.19 kcal/mol
DOCKED: USER    (3) Torsional Free Energy           =   +2.98 kcal/mol
DOCKED: USER    (4) Unbound System's Energy  [=(2)] =   -2.19 kcal/mol
DOCKED: USER    
DOCKED: USER    
DOCKED: USER    NEWDPF move heme_Fe_opt.pdbqt
DOCKED: USER    NEWDPF about -0.174000 -0.001000 -0.047000
DOCKED: USER    NEWDPF tran0 8.441005 12.509740 29.038890
DOCKED: USER    NEWDPF quaternion0 0.584412 0.011300 -0.786394 -0.199796
DOCKED: USER    NEWDPF axisangle0 0.596438 0.011533 -0.802576 -156.949995
DOCKED: USER    NEWDPF quat0 0.596438 0.011533 -0.802576 -156.949995
DOCKED: USER    NEWDPF dihe0 -26.30 146.66 65.07 -134.13 75.48 -88.39 -84.24 13.18 180.00 -179.92 
DOCKED: USER  keepresnum = 1 
DOCKED: USER  
DOCKED: REMARK  10 active torsions:
DOCKED: REMARK  status: ('A' for Active; 'I' for Inactive)
DOCKED: REMARK    1  A    between atoms: C_6  and  C_10 
DOCKED: REMARK    2  A    between atoms: C_10  and  C_11 
DOCKED: REMARK    3  A    between atoms: C_11  and  C_12 
DOCKED: REMARK    4  A    between atoms: C_12  and  O_14 
DOCKED: REMARK    5  A    between atoms: C_17  and  C_20 
DOCKED: REMARK    6  A    between atoms: C_24  and  C_27 
DOCKED: REMARK    7  A    between atoms: C_31  and  C_34 
DOCKED: REMARK    8  A    between atoms: C_34  and  C_35 
DOCKED: REMARK    9  A    between atoms: C_35  and  C_36 
DOCKED: REMARK   10  A    between atoms: C_36  and  O_38 
DOCKED: USER                              x       y       z     vdW  Elec       q    Type
DOCKED: USER                           _______ _______ _______ _____ _____    ______ ____
DOCKED: ROOT
DOCKED: ATOM      1  C   UNL d   1       8.405  13.027  31.024 -0.31 +0.02    +0.064 C 
DOCKED: ATOM      2  C   UNL d   1       6.628  15.035  26.872 -0.41 +0.01    +0.064 A 
DOCKED: ATOM      3  C   UNL d   1       7.378  10.862  24.615 -0.10 +0.00    +0.064 C 
DOCKED: ATOM      4  C   UNL d   1       9.199   8.932  28.595 -0.43 +0.01    +0.064 C 
DOCKED: ATOM      5  C   UNL d   1       7.913  14.004  30.044 -0.31 +0.02    +0.066 A 
DOCKED: ATOM      6  C   UNL d   1       7.688  15.345  30.309 -0.32 -0.01    -0.021 A 
DOCKED: ATOM      7  C   UNL d   1       7.191  15.901  29.156 -0.30 -0.01    -0.025 A 
DOCKED: ATOM      8  C   UNL d   1       7.131  14.877  28.231 -0.38 +0.01    +0.066 A 
DOCKED: ATOM      9  C   UNL d   1       6.817  17.338  28.959 +0.11 +0.01    +0.051 C 
DOCKED: ATOM     10  C   UNL d   1       6.613  14.078  25.943 -0.36 +0.01    +0.066 A 
DOCKED: ATOM     11  C   UNL d   1       6.019  14.226  24.687 -0.38 -0.00    -0.021 A 
DOCKED: ATOM     12  C   UNL d   1       6.207  13.031  24.023 -0.38 +0.00    +0.000 A 
DOCKED: ATOM     13  C   UNL d   1       6.905  12.204  24.920 -0.32 +0.00    +0.070 A 
DOCKED: ATOM     14  C   UNL d   1       5.249  15.425  24.170 -0.55 +0.00    +0.052 C 
DOCKED: ATOM     15  C   UNL d   1       8.005  10.043  25.492 -0.34 +0.01    +0.066 A 
DOCKED: ATOM     16  C   UNL d   1       8.530   8.808  25.134 -0.44 -0.00    -0.021 A 
DOCKED: ATOM     17  C   UNL d   1       9.053   8.248  26.281 -0.44 +0.00    +0.000 A 
DOCKED: ATOM     18  C   UNL d   1       8.830   9.155  27.315 -0.38 +0.01    +0.070 A 
DOCKED: ATOM     19  C   UNL d   1       8.520   8.165  23.773 -0.65 +0.00    +0.052 C 
DOCKED: ATOM     20  C   UNL d   1       9.037   9.888  29.697 -0.39 +0.02    +0.066 A 
DOCKED: ATOM     21  C   UNL d   1       9.228   9.598  31.055 -0.40 -0.01    -0.025 A 
DOCKED: ATOM     22  C   UNL d   1       9.009  10.783  31.728 -0.35 -0.01    -0.021 A 
DOCKED: ATOM     23  C   UNL d   1       8.688  11.741  30.760 -0.23 +0.02    +0.066 A 
DOCKED: ATOM     24  C   UNL d   1       9.594   8.280  31.697 -0.50 +0.01    +0.051 C 
DOCKED: ATOM     25  N   UNL d   1       7.580  13.727  28.771 -0.22 -0.04    -0.248 N 
DOCKED: ATOM     26  N   UNL d   1       7.145  12.838  26.093 -0.23 -0.02    -0.248 N 
DOCKED: ATOM     27  N   UNL d   1       8.226  10.277  26.823 -0.22 -0.03    -0.248 N 
DOCKED: ATOM     28  N   UNL d   1       8.663  11.179  29.527 -0.24 -0.05    -0.248 N 
DOCKED: ATOM     29 FE   UNL d   1       7.905  12.007  27.811 -0.08 +0.00    +0.000 Fe
DOCKED: ENDROOT
DOCKED: BRANCH   6  30
DOCKED: ATOM     30  C   UNL d   1       7.952  16.069  31.585 -0.27 +0.02    +0.052 C 
DOCKED: BRANCH  30  31
DOCKED: ATOM     31  C   UNL d   1       6.723  16.039  32.487 -0.03 +0.09    +0.115 C 
DOCKED: BRANCH  31  32
DOCKED: ATOM     32  C   UNL d   1       6.825  14.913  33.478 -0.09 +0.17    +0.139 C 
DOCKED: ATOM     33  O   UNL d   1       7.570  14.998  34.444 -0.12 -0.84    -0.650 OA
DOCKED: BRANCH  32  34
DOCKED: ATOM     34  O   UNL d   1       6.095  13.798  33.309 -0.15 -0.94    -0.776 OA
DOCKED: ATOM     35  H   UNL d   1       6.416  12.965  33.682 +0.06 +0.17    +0.167 HD
DOCKED: ENDBRANCH  32  34
DOCKED: ENDBRANCH  31  32
DOCKED: ENDBRANCH  30  31
DOCKED: ENDBRANCH   6  30
DOCKED: BRANCH  22  36
DOCKED: ATOM     36  C   UNL d   1       9.058  10.968  33.222 -0.30 +0.03    +0.052 C 
DOCKED: BRANCH  36  37
DOCKED: ATOM     37  C   UNL d   1       7.729  10.552  33.834 -0.36 +0.06    +0.115 C 
DOCKED: BRANCH  37  38
DOCKED: ATOM     38  C   UNL d   1       7.632  10.998  35.266 -0.24 +0.09    +0.139 C 
DOCKED: ATOM     39  O   UNL d   1       8.044  10.288  36.171 -0.50 -0.46    -0.650 OA
DOCKED: BRANCH  38  40
DOCKED: ATOM     40  O   UNL d   1       7.082  12.189  35.562 +0.07 -0.69    -0.776 OA
DOCKED: ATOM     41  H   UNL d   1       7.198  12.926  34.946 +0.06 +0.18    +0.167 HD
DOCKED: ENDBRANCH  38  40
DOCKED: ENDBRANCH  37  38
DOCKED: ENDBRANCH  36  37
DOCKED: ENDBRANCH  22  36
DOCKED: BRANCH  12  42
DOCKED: ATOM     42  C   UNL d   1       5.722  12.735  22.639 -0.46 +0.00    +0.004 C 
DOCKED: ATOM     43  C   UNL d   1       6.584  12.551  21.631 -0.55 +0.00    +0.012 C 
DOCKED: ENDBRANCH  12  42
DOCKED: BRANCH  17  44
DOCKED: ATOM     44  C   UNL d   1       9.739   6.939  26.378 -0.40 +0.00    +0.004 C 
DOCKED: ATOM     45  C   UNL d   1       9.039   5.802  26.439 -0.71 +0.00    +0.012 C 
DOCKED: ENDBRANCH  17  44
DOCKED: TORSDOF 10
DOCKED: TER
DOCKED: ENDMDL
________________________________________________________________________________


	BEGINNING GENETIC ALGORITHM DOCKING 93 of 100
Run: 93 Seed: 192760471 1870395502 [ Run 93 of 100 GA/GALS ]
Beginning LAMARCKIAN GENETIC ALGORITHM (LGA), with a maximum of 25000000 energy evaluations.

Final-Value: -17.963


	FINAL GENETIC ALGORITHM DOCKED STATE
	_______________________________________________


Detailed state:  trans 8.526 12.098 29.197 quatxyzw 0.614331 0.021764 -0.763618 -0.197511 center -0.174 -0.001 -0.047 ntor 10 0.1053 -166.6789 70.4469 -124.6869 -163.6445 141.2948 -80.2285 -41.2035 -165.2809 -45.5254
State:	  8.526  12.098  29.197   0.627  0.022 -0.779 -157.217      0.11 -166.68   70.45 -124.69 -163.64  141.29  -80.23  -41.20 -165.28  -45.53

DOCKED: MODEL       93
DOCKED: USER    Run = 93
DOCKED: USER    DPF = D:/Protein_go_brrr/autodock/final/1A3N/heme_Fe/dock.dpf
DOCKED: USER  
DOCKED: USER    Estimated Free Energy of Binding    =  -13.43 kcal/mol  [=(1)+(2)+(3)-(4)]
DOCKED: USER    Estimated Inhibition Constant, Ki   =  144.27 pM (picomolar)  [Temperature = 298.15 K]
DOCKED: USER    
DOCKED: USER    (1) Final Intermolecular Energy     =  -16.41 kcal/mol
DOCKED: USER        vdW + Hbond + desolv Energy     =  -13.55 kcal/mol
DOCKED: USER        Electrostatic Energy            =   -2.86 kcal/mol
DOCKED: USER    (2) Final Total Internal Energy     =   -1.55 kcal/mol
DOCKED: USER    (3) Torsional Free Energy           =   +2.98 kcal/mol
DOCKED: USER    (4) Unbound System's Energy  [=(2)] =   -1.55 kcal/mol
DOCKED: USER    
DOCKED: USER    
DOCKED: USER    NEWDPF move heme_Fe_opt.pdbqt
DOCKED: USER    NEWDPF about -0.174000 -0.001000 -0.047000
DOCKED: USER    NEWDPF tran0 8.525523 12.098168 29.196577
DOCKED: USER    NEWDPF quaternion0 0.614331 0.021764 -0.763618 -0.197511
DOCKED: USER    NEWDPF axisangle0 0.626676 0.022201 -0.778964 -157.217087
DOCKED: USER    NEWDPF quat0 0.626676 0.022201 -0.778964 -157.217087
DOCKED: USER    NEWDPF dihe0 0.11 -166.68 70.45 -124.69 -163.64 141.29 -80.23 -41.20 -165.28 -45.53 
DOCKED: USER  keepresnum = 1 
DOCKED: USER  
DOCKED: REMARK  10 active torsions:
DOCKED: REMARK  status: ('A' for Active; 'I' for Inactive)
DOCKED: REMARK    1  A    between atoms: C_6  and  C_10 
DOCKED: REMARK    2  A    between atoms: C_10  and  C_11 
DOCKED: REMARK    3  A    between atoms: C_11  and  C_12 
DOCKED: REMARK    4  A    between atoms: C_12  and  O_14 
DOCKED: REMARK    5  A    between atoms: C_17  and  C_20 
DOCKED: REMARK    6  A    between atoms: C_24  and  C_27 
DOCKED: REMARK    7  A    between atoms: C_31  and  C_34 
DOCKED: REMARK    8  A    between atoms: C_34  and  C_35 
DOCKED: REMARK    9  A    between atoms: C_35  and  C_36 
DOCKED: REMARK   10  A    between atoms: C_36  and  O_38 
DOCKED: USER                              x       y       z     vdW  Elec       q    Type
DOCKED: USER                           _______ _______ _______ _____ _____    ______ ____
DOCKED: ROOT
DOCKED: ATOM      1  C   UNL d   1       8.343  12.550  31.190 -0.21 +0.02    +0.064 C 
DOCKED: ATOM      2  C   UNL d   1       6.821  14.662  26.988 -0.40 +0.01    +0.064 A 
DOCKED: ATOM      3  C   UNL d   1       7.801  10.577  24.661 -0.27 +0.00    +0.064 C 
DOCKED: ATOM      4  C   UNL d   1       9.378   8.549  28.696 -0.41 +0.01    +0.064 C 
DOCKED: ATOM      5  C   UNL d   1       7.902  13.551  30.208 -0.24 +0.02    +0.066 A 
DOCKED: ATOM      6  C   UNL d   1       7.635  14.879  30.498 -0.33 -0.01    -0.021 A 
DOCKED: ATOM      7  C   UNL d   1       7.209  15.464  29.332 -0.36 -0.01    -0.025 A 
DOCKED: ATOM      8  C   UNL d   1       7.232  14.469  28.373 -0.36 +0.01    +0.066 A 
DOCKED: ATOM      9  C   UNL d   1       6.823  16.900  29.154 -0.22 +0.01    +0.051 C 
DOCKED: ATOM     10  C   UNL d   1       6.887  13.736  26.031 -0.36 +0.01    +0.066 A 
DOCKED: ATOM     11  C   UNL d   1       6.379  13.915  24.742 -0.39 -0.00    -0.021 A 
DOCKED: ATOM     12  C   UNL d   1       6.634  12.745  24.056 -0.37 +0.00    +0.000 A 
DOCKED: ATOM     13  C   UNL d   1       7.284  11.900  24.973 -0.33 +0.00    +0.070 A 
DOCKED: ATOM     14  C   UNL d   1       5.626  15.117  24.210 -0.52 +0.00    +0.052 C 
DOCKED: ATOM     15  C   UNL d   1       8.381   9.740  25.553 -0.37 +0.01    +0.066 A 
DOCKED: ATOM     16  C   UNL d   1       8.952   8.526  25.195 -0.47 -0.00    -0.021 A 
DOCKED: ATOM     17  C   UNL d   1       9.404   7.937  26.358 -0.43 +0.00    +0.000 A 
DOCKED: ATOM     18  C   UNL d   1       9.094   8.807  27.401 -0.38 +0.01    +0.070 A 
DOCKED: ATOM     19  C   UNL d   1       9.047   7.927  23.817 -0.66 +0.00    +0.052 C 
DOCKED: ATOM     20  C   UNL d   1       9.122   9.466  29.813 -0.38 +0.02    +0.066 A 
DOCKED: ATOM     21  C   UNL d   1       9.224   9.136  31.172 -0.39 -0.01    -0.025 A 
DOCKED: ATOM     22  C   UNL d   1       8.938  10.295  31.864 -0.37 -0.01    -0.021 A 
DOCKED: ATOM     23  C   UNL d   1       8.667  11.279  30.906 -0.26 +0.02    +0.066 A 
DOCKED: ATOM     24  C   UNL d   1       9.569   7.804  31.796 -0.44 +0.01    +0.051 C 
DOCKED: ATOM     25  N   UNL d   1       7.663  13.309  28.907 -0.18 -0.04    -0.248 N 
DOCKED: ATOM     26  N   UNL d   1       7.431  12.501  26.180 -0.23 -0.01    -0.248 N 
DOCKED: ATOM     27  N   UNL d   1       8.505   9.935  26.903 -0.22 -0.03    -0.248 N 
DOCKED: ATOM     28  N   UNL d   1       8.737  10.756  29.658 -0.25 -0.06    -0.248 N 
DOCKED: ATOM     29 FE   UNL d   1       8.085  11.627  27.919 -0.08 +0.00    +0.000 Fe
DOCKED: ENDROOT
DOCKED: BRANCH   6  30
DOCKED: ATOM     30  C   UNL d   1       7.797  15.565  31.811 -0.28 +0.02    +0.052 C 
DOCKED: BRANCH  30  31
DOCKED: ATOM     31  C   UNL d   1       6.666  15.187  32.762 -0.05 +0.11    +0.115 C 
DOCKED: BRANCH  31  32
DOCKED: ATOM     32  C   UNL d   1       7.122  14.127  33.726 -0.18 +0.16    +0.139 C 
DOCKED: ATOM     33  O   UNL d   1       6.309  13.477  34.367 -0.19 -1.13    -0.650 OA
DOCKED: BRANCH  32  34
DOCKED: ATOM     34  O   UNL d   1       8.433  13.884  33.892 +0.08 -0.58    -0.776 OA
DOCKED: ATOM     35  H   UNL d   1       8.708  13.198  34.515 +0.06 +0.13    +0.167 HD
DOCKED: ENDBRANCH  32  34
DOCKED: ENDBRANCH  31  32
DOCKED: ENDBRANCH  30  31
DOCKED: ENDBRANCH   6  30
DOCKED: BRANCH  22  36
DOCKED: ATOM     36  C   UNL d   1       8.880  10.432  33.363 -0.35 +0.03    +0.052 C 
DOCKED: BRANCH  36  37
DOCKED: ATOM     37  C   UNL d   1      10.156   9.878  33.979 -0.22 +0.09    +0.115 C 
DOCKED: BRANCH  37  38
DOCKED: ATOM     38  C   UNL d   1      10.650  10.767  35.085 -0.14 +0.18    +0.139 C 
DOCKED: ATOM     39  O   UNL d   1      11.130  10.291  36.103 -0.04 -1.00    -0.650 OA
DOCKED: BRANCH  38  40
DOCKED: ATOM     40  O   UNL d   1      10.563  12.103  34.961 -0.41 -1.01    -0.776 OA
DOCKED: ATOM     41  H   UNL d   1      10.016  12.476  34.256 +0.06 +0.15    +0.167 HD
DOCKED: ENDBRANCH  38  40
DOCKED: ENDBRANCH  37  38
DOCKED: ENDBRANCH  36  37
DOCKED: ENDBRANCH  22  36
DOCKED: BRANCH  12  42
DOCKED: ATOM     42  C   UNL d   1       6.252  12.485  22.633 -0.46 +0.00    +0.004 C 
DOCKED: ATOM     43  C   UNL d   1       7.183  12.242  21.702 -0.56 +0.00    +0.012 C 
DOCKED: ENDBRANCH  12  42
DOCKED: BRANCH  17  44
DOCKED: ATOM     44  C   UNL d   1      10.105   6.638  26.461 -0.26 +0.00    +0.004 C 
DOCKED: ATOM     45  C   UNL d   1       9.453   5.489  26.252 -0.72 +0.00    +0.012 C 
DOCKED: ENDBRANCH  17  44
DOCKED: TORSDOF 10
DOCKED: TER
DOCKED: ENDMDL
________________________________________________________________________________


	BEGINNING GENETIC ALGORITHM DOCKING 94 of 100
Run: 94 Seed: 182232222 1355151998 [ Run 94 of 100 GA/GALS ]
Beginning LAMARCKIAN GENETIC ALGORITHM (LGA), with a maximum of 25000000 energy evaluations.

Final-Value: -17.299


	FINAL GENETIC ALGORITHM DOCKED STATE
	_______________________________________________


Detailed state:  trans 7.330 13.129 30.326 quatxyzw -0.286606 0.662094 -0.026285 -0.691952 center -0.174 -0.001 -0.047 ntor 10 138.7188 100.3146 67.0118 -132.0045 150.6687 15.6779 100.5059 52.2014 -159.7390 137.6276
State:	  7.330  13.129  30.326  -0.397  0.917 -0.036 -92.430    138.72  100.31   67.01 -132.00  150.67   15.68  100.51   52.20 -159.74  137.63

DOCKED: MODEL       94
DOCKED: USER    Run = 94
DOCKED: USER    DPF = D:/Protein_go_brrr/autodock/final/1A3N/heme_Fe/dock.dpf
DOCKED: USER  
DOCKED: USER    Estimated Free Energy of Binding    =  -13.58 kcal/mol  [=(1)+(2)+(3)-(4)]
DOCKED: USER    Estimated Inhibition Constant, Ki   =  111.09 pM (picomolar)  [Temperature = 298.15 K]
DOCKED: USER    
DOCKED: USER    (1) Final Intermolecular Energy     =  -16.56 kcal/mol
DOCKED: USER        vdW + Hbond + desolv Energy     =  -13.56 kcal/mol
DOCKED: USER        Electrostatic Energy            =   -3.00 kcal/mol
DOCKED: USER    (2) Final Total Internal Energy     =   -0.74 kcal/mol
DOCKED: USER    (3) Torsional Free Energy           =   +2.98 kcal/mol
DOCKED: USER    (4) Unbound System's Energy  [=(2)] =   -0.74 kcal/mol
DOCKED: USER    
DOCKED: USER    
DOCKED: USER    NEWDPF move heme_Fe_opt.pdbqt
DOCKED: USER    NEWDPF about -0.174000 -0.001000 -0.047000
DOCKED: USER    NEWDPF tran0 7.330196 13.128796 30.326270
DOCKED: USER    NEWDPF quaternion0 -0.286606 0.662094 -0.026285 -0.691952
DOCKED: USER    NEWDPF axisangle0 -0.396992 0.917100 -0.036409 -92.430415
DOCKED: USER    NEWDPF quat0 -0.396992 0.917100 -0.036409 -92.430415
DOCKED: USER    NEWDPF dihe0 138.72 100.31 67.01 -132.00 150.67 15.68 100.51 52.20 -159.74 137.63 
DOCKED: USER  keepresnum = 1 
DOCKED: USER  
DOCKED: REMARK  10 active torsions:
DOCKED: REMARK  status: ('A' for Active; 'I' for Inactive)
DOCKED: REMARK    1  A    between atoms: C_6  and  C_10 
DOCKED: REMARK    2  A    between atoms: C_10  and  C_11 
DOCKED: REMARK    3  A    between atoms: C_11  and  C_12 
DOCKED: REMARK    4  A    between atoms: C_12  and  O_14 
DOCKED: REMARK    5  A    between atoms: C_17  and  C_20 
DOCKED: REMARK    6  A    between atoms: C_24  and  C_27 
DOCKED: REMARK    7  A    between atoms: C_31  and  C_34 
DOCKED: REMARK    8  A    between atoms: C_34  and  C_35 
DOCKED: REMARK    9  A    between atoms: C_35  and  C_36 
DOCKED: REMARK   10  A    between atoms: C_36  and  O_38 
DOCKED: USER                              x       y       z     vdW  Elec       q    Type
DOCKED: USER                           _______ _______ _______ _____ _____    ______ ____
DOCKED: ROOT
DOCKED: ATOM      1  C   UNL d   1       7.604  14.096  32.115 -0.29 +0.03    +0.064 C 
DOCKED: ATOM      2  C   UNL d   1       9.010   9.733  30.266 -0.39 +0.02    +0.064 A 
DOCKED: ATOM      3  C   UNL d   1       7.832  11.291  25.879 -0.39 +0.00    +0.064 C 
DOCKED: ATOM      4  C   UNL d   1       6.368  15.482  27.660 -0.50 +0.01    +0.064 C 
DOCKED: ATOM      5  C   UNL d   1       8.031  12.694  32.012 -0.20 +0.03    +0.066 A 
DOCKED: ATOM      6  C   UNL d   1       8.343  11.881  33.090 -0.26 -0.01    -0.021 A 
DOCKED: ATOM      7  C   UNL d   1       8.737  10.670  32.575 -0.33 -0.01    -0.025 A 
DOCKED: ATOM      8  C   UNL d   1       8.650  10.791  31.202 -0.32 +0.02    +0.066 A 
DOCKED: ATOM      9  C   UNL d   1       9.152   9.468  33.366 -0.41 +0.02    +0.051 C 
DOCKED: ATOM     10  C   UNL d   1       8.881   9.803  28.941 -0.39 +0.01    +0.066 A 
DOCKED: ATOM     11  C   UNL d   1       9.341   8.818  28.064 -0.41 -0.00    -0.021 A 
DOCKED: ATOM     12  C   UNL d   1       9.029   9.251  26.791 -0.43 +0.00    +0.000 A 
DOCKED: ATOM     13  C   UNL d   1       8.395  10.495  26.958 -0.34 +0.01    +0.070 A 
DOCKED: ATOM     14  C   UNL d   1      10.103   7.557  28.417 -0.33 +0.01    +0.052 C 
DOCKED: ATOM     15  C   UNL d   1       7.268  12.512  26.029 -0.35 +0.00    +0.066 A 
DOCKED: ATOM     16  C   UNL d   1       6.652  13.196  24.988 -0.37 -0.00    -0.021 A 
DOCKED: ATOM     17  C   UNL d   1       6.232  14.407  25.499 -0.41 +0.00    +0.000 A 
DOCKED: ATOM     18  C   UNL d   1       6.606  14.435  26.841 -0.36 +0.01    +0.070 A 
DOCKED: ATOM     19  C   UNL d   1       6.486  12.743  23.563 -0.39 +0.00    +0.052 C 
DOCKED: ATOM     20  C   UNL d   1       6.692  15.522  29.091 -0.39 +0.01    +0.066 A 
DOCKED: ATOM     21  C   UNL d   1       6.636  16.664  29.902 -0.33 -0.01    -0.025 A 
DOCKED: ATOM     22  C   UNL d   1       6.980  16.244  31.170 -0.30 -0.01    -0.021 A 
DOCKED: ATOM     23  C   UNL d   1       7.237  14.870  31.082 -0.29 +0.03    +0.066 A 
DOCKED: ATOM     24  C   UNL d   1       6.283  18.081  29.514 -0.35 +0.01    +0.051 C 
DOCKED: ATOM     25  N   UNL d   1       8.211  12.020  30.863 +0.06 -0.08    -0.248 N 
DOCKED: ATOM     26  N   UNL d   1       8.313  10.836  28.267 -0.24 -0.04    -0.248 N 
DOCKED: ATOM     27  N   UNL d   1       7.204  13.253  27.178 -0.23 -0.02    -0.248 N 
DOCKED: ATOM     28  N   UNL d   1       7.103  14.445  29.802 -0.21 -0.06    -0.248 N 
DOCKED: ATOM     29 FE   UNL d   1       7.707  12.642  29.034 -0.08 +0.00    +0.000 Fe
DOCKED: ENDROOT
DOCKED: BRANCH   6  30
DOCKED: ATOM     30  C   UNL d   1       8.251  12.227  34.537 -0.20 +0.04    +0.052 C 
DOCKED: BRANCH  30  31
DOCKED: ATOM     31  C   UNL d   1       9.329  13.236  34.920 -0.15 +0.09    +0.115 C 
DOCKED: BRANCH  31  32
DOCKED: ATOM     32  C   UNL d   1      10.651  12.546  35.112 -0.15 +0.18    +0.139 C 
DOCKED: ATOM     33  O   UNL d   1      11.699  13.137  34.894 -0.43 -1.15    -0.650 OA
DOCKED: BRANCH  32  34
DOCKED: ATOM     34  O   UNL d   1      10.692  11.269  35.526 -0.27 -1.15    -0.776 OA
DOCKED: ATOM     35  H   UNL d   1      10.084  10.981  36.222 +0.05 +0.17    +0.167 HD
DOCKED: ENDBRANCH  32  34
DOCKED: ENDBRANCH  31  32
DOCKED: ENDBRANCH  30  31
DOCKED: ENDBRANCH   6  30
DOCKED: BRANCH  22  36
DOCKED: ATOM     36  C   UNL d   1       7.101  17.124  32.386 -0.23 +0.03    +0.052 C 
DOCKED: BRANCH  36  37
DOCKED: ATOM     37  C   UNL d   1       8.478  16.950  33.010 -0.17 +0.06    +0.115 C 
DOCKED: BRANCH  37  38
DOCKED: ATOM     38  C   UNL d   1       8.370  16.656  34.480 -0.13 +0.10    +0.139 C 
DOCKED: ATOM     39  O   UNL d   1       7.308  16.305  34.971 -0.46 -1.02    -0.650 OA
DOCKED: BRANCH  38  40
DOCKED: ATOM     40  O   UNL d   1       9.451  16.782  35.271 +0.03 -0.41    -0.776 OA
DOCKED: ATOM     41  H   UNL d   1      10.108  16.072  35.286 +0.03 +0.09    +0.167 HD
DOCKED: ENDBRANCH  38  40
DOCKED: ENDBRANCH  37  38
DOCKED: ENDBRANCH  36  37
DOCKED: ENDBRANCH  22  36
DOCKED: BRANCH  12  42
DOCKED: ATOM     42  C   UNL d   1       9.348   8.509  25.532 -0.52 +0.00    +0.004 C 
DOCKED: ATOM     43  C   UNL d   1       8.372   8.028  24.750 -0.58 +0.00    +0.012 C 
DOCKED: ENDBRANCH  12  42
DOCKED: BRANCH  17  44
DOCKED: ATOM     44  C   UNL d   1       5.503  15.460  24.757 -0.55 +0.00    +0.004 C 
DOCKED: ATOM     45  C   UNL d   1       6.147  16.280  23.920 -0.59 +0.00    +0.012 C 
DOCKED: ENDBRANCH  17  44
DOCKED: TORSDOF 10
DOCKED: TER
DOCKED: ENDMDL
________________________________________________________________________________


	BEGINNING GENETIC ALGORITHM DOCKING 95 of 100
Run: 95 Seed: 1520236935 1415589551 [ Run 95 of 100 GA/GALS ]
Beginning LAMARCKIAN GENETIC ALGORITHM (LGA), with a maximum of 25000000 energy evaluations.

Final-Value: -17.753


	FINAL GENETIC ALGORITHM DOCKED STATE
	_______________________________________________


Detailed state:  trans 24.332 -7.056 32.673 quatxyzw -0.648698 -0.188561 0.737286 0.006715 center -0.174 -0.001 -0.047 ntor 10 137.9623 -87.8698 67.5880 -115.5199 164.4669 -180.0000 86.4872 57.2062 9.8157 118.7509
State:	 24.332  -7.056  32.673  -0.649 -0.189  0.737 179.231    137.96  -87.87   67.59 -115.52  164.47 -180.00   86.49   57.21    9.82  118.75

DOCKED: MODEL       95
DOCKED: USER    Run = 95
DOCKED: USER    DPF = D:/Protein_go_brrr/autodock/final/1A3N/heme_Fe/dock.dpf
DOCKED: USER  
DOCKED: USER    Estimated Free Energy of Binding    =  -13.04 kcal/mol  [=(1)+(2)+(3)-(4)]
DOCKED: USER    Estimated Inhibition Constant, Ki   =  274.72 pM (picomolar)  [Temperature = 298.15 K]
DOCKED: USER    
DOCKED: USER    (1) Final Intermolecular Energy     =  -16.03 kcal/mol
DOCKED: USER        vdW + Hbond + desolv Energy     =  -13.72 kcal/mol
DOCKED: USER        Electrostatic Energy            =   -2.30 kcal/mol
DOCKED: USER    (2) Final Total Internal Energy     =   -1.73 kcal/mol
DOCKED: USER    (3) Torsional Free Energy           =   +2.98 kcal/mol
DOCKED: USER    (4) Unbound System's Energy  [=(2)] =   -1.73 kcal/mol
DOCKED: USER    
DOCKED: USER    
DOCKED: USER    NEWDPF move heme_Fe_opt.pdbqt
DOCKED: USER    NEWDPF about -0.174000 -0.001000 -0.047000
DOCKED: USER    NEWDPF tran0 24.331823 -7.056372 32.672861
DOCKED: USER    NEWDPF quaternion0 -0.648698 -0.188561 0.737286 0.006715
DOCKED: USER    NEWDPF axisangle0 -0.648712 -0.188565 0.737303 179.230561
DOCKED: USER    NEWDPF quat0 -0.648712 -0.188565 0.737303 179.230561
DOCKED: USER    NEWDPF dihe0 137.96 -87.87 67.59 -115.52 164.47 -180.00 86.49 57.21 9.82 118.75 
DOCKED: USER  keepresnum = 1 
DOCKED: USER  
DOCKED: REMARK  10 active torsions:
DOCKED: REMARK  status: ('A' for Active; 'I' for Inactive)
DOCKED: REMARK    1  A    between atoms: C_6  and  C_10 
DOCKED: REMARK    2  A    between atoms: C_10  and  C_11 
DOCKED: REMARK    3  A    between atoms: C_11  and  C_12 
DOCKED: REMARK    4  A    between atoms: C_12  and  O_14 
DOCKED: REMARK    5  A    between atoms: C_17  and  C_20 
DOCKED: REMARK    6  A    between atoms: C_24  and  C_27 
DOCKED: REMARK    7  A    between atoms: C_31  and  C_34 
DOCKED: REMARK    8  A    between atoms: C_34  and  C_35 
DOCKED: REMARK    9  A    between atoms: C_35  and  C_36 
DOCKED: REMARK   10  A    between atoms: C_36  and  O_38 
DOCKED: USER                              x       y       z     vdW  Elec       q    Type
DOCKED: USER                           _______ _______ _______ _____ _____    ______ ____
DOCKED: ROOT
DOCKED: ATOM      1  C   UNL d   1      24.123  -7.619  34.635 -0.31 +0.02    +0.064 C 
DOCKED: ATOM      2  C   UNL d   1      22.883  -3.618  32.011 -0.41 +0.01    +0.064 A 
DOCKED: ATOM      3  C   UNL d   1      23.635  -6.115  27.978 -0.42 +0.00    +0.064 C 
DOCKED: ATOM      4  C   UNL d   1      24.940  -9.967  30.497 -0.48 +0.00    +0.064 C 
DOCKED: ATOM      5  C   UNL d   1      23.785  -6.236  34.270 -0.20 +0.02    +0.066 A 
DOCKED: ATOM      6  C   UNL d   1      23.607  -5.201  35.173 -0.25 -0.00    -0.021 A 
DOCKED: ATOM      7  C   UNL d   1      23.259  -4.091  34.444 -0.34 -0.00    -0.025 A 
DOCKED: ATOM      8  C   UNL d   1      23.238  -4.492  33.122 -0.34 +0.01    +0.066 A 
DOCKED: ATOM      9  C   UNL d   1      22.983  -2.725  34.993 -0.40 +0.01    +0.051 C 
DOCKED: ATOM     10  C   UNL d   1      22.911  -3.964  30.723 -0.40 +0.01    +0.066 A 
DOCKED: ATOM     11  C   UNL d   1      22.456  -3.141  29.690 -0.44 -0.00    -0.021 A 
DOCKED: ATOM     12  C   UNL d   1      22.647  -3.844  28.518 -0.46 +0.00    +0.000 A 
DOCKED: ATOM     13  C   UNL d   1      23.206  -5.076  28.901 -0.38 +0.00    +0.070 A 
DOCKED: ATOM     14  C   UNL d   1      21.808  -1.777  29.819 -0.37 +0.00    +0.052 C 
DOCKED: ATOM     15  C   UNL d   1      24.126  -7.323  28.344 -0.39 +0.00    +0.066 A 
DOCKED: ATOM     16  C   UNL d   1      24.618  -8.249  27.433 -0.41 -0.00    -0.021 A 
DOCKED: ATOM     17  C   UNL d   1      24.991  -9.363  28.157 -0.49 +0.00    +0.000 A 
DOCKED: ATOM     18  C   UNL d   1      24.714  -9.090  29.495 -0.40 +0.00    +0.070 A 
DOCKED: ATOM     19  C   UNL d   1      24.711  -8.107  25.938 -0.47 +0.00    +0.052 C 
DOCKED: ATOM     20  C   UNL d   1      24.718  -9.693  31.922 -0.36 +0.01    +0.066 A 
DOCKED: ATOM     21  C   UNL d   1      24.755 -10.649  32.947 -0.28 -0.00    -0.025 A 
DOCKED: ATOM     22  C   UNL d   1      24.533  -9.956  34.119 -0.27 -0.01    -0.021 A 
DOCKED: ATOM     23  C   UNL d   1      24.363  -8.612  33.764 -0.30 +0.02    +0.066 A 
DOCKED: ATOM     24  C   UNL d   1      24.984 -12.139  32.838 -0.17 +0.00    +0.051 C 
DOCKED: ATOM     25  N   UNL d   1      23.568  -5.795  33.019 -0.20 -0.04    -0.248 N 
DOCKED: ATOM     26  N   UNL d   1      23.359  -5.153  30.245 -0.24 -0.01    -0.248 N 
DOCKED: ATOM     27  N   UNL d   1      24.223  -7.820  29.616 -0.23 -0.00    -0.248 N 
DOCKED: ATOM     28  N   UNL d   1      24.432  -8.465  32.419 -0.23 -0.03    -0.248 N 
DOCKED: ATOM     29 FE   UNL d   1      23.896  -6.811  31.332 -0.09 +0.00    +0.000 Fe
DOCKED: ENDROOT
DOCKED: BRANCH   6  30
DOCKED: ATOM     30  C   UNL d   1      23.778  -5.256  36.653 -0.20 +0.02    +0.052 C 
DOCKED: BRANCH  30  31
DOCKED: ATOM     31  C   UNL d   1      25.139  -4.701  37.060 -0.19 +0.05    +0.115 C 
DOCKED: BRANCH  31  32
DOCKED: ATOM     32  C   UNL d   1      26.148  -5.810  37.170 -0.14 +0.15    +0.139 C 
DOCKED: ATOM     33  O   UNL d   1      27.345  -5.563  37.203 -0.22 -1.02    -0.650 OA
DOCKED: BRANCH  32  34
DOCKED: ATOM     34  O   UNL d   1      25.741  -7.089  37.232 -0.21 -1.15    -0.776 OA
DOCKED: ATOM     35  H   UNL d   1      24.977  -7.312  37.783 +0.03 +0.15    +0.167 HD
DOCKED: ENDBRANCH  32  34
DOCKED: ENDBRANCH  31  32
DOCKED: ENDBRANCH  30  31
DOCKED: ENDBRANCH   6  30
DOCKED: BRANCH  22  36
DOCKED: ATOM     36  C   UNL d   1      24.440 -10.561  35.494 -0.21 +0.02    +0.052 C 
DOCKED: BRANCH  36  37
DOCKED: ATOM     37  C   UNL d   1      23.400  -9.813  36.315 -0.17 +0.03    +0.115 C 
DOCKED: BRANCH  37  38
DOCKED: ATOM     38  C   UNL d   1      23.998  -9.283  37.588 -0.12 +0.06    +0.139 C 
DOCKED: ATOM     39  O   UNL d   1      23.318  -8.650  38.382 +0.01 -0.23    -0.650 OA
DOCKED: BRANCH  38  40
DOCKED: ATOM     40  O   UNL d   1      25.297  -9.501  37.861 -0.22 -0.71    -0.776 OA
DOCKED: ATOM     41  H   UNL d   1      25.952  -8.844  37.585 +0.02 +0.31    +0.167 HD
DOCKED: ENDBRANCH  38  40
DOCKED: ENDBRANCH  37  38
DOCKED: ENDBRANCH  36  37
DOCKED: ENDBRANCH  22  36
DOCKED: BRANCH  12  42
DOCKED: ATOM     42  C   UNL d   1      22.289  -3.348  27.153 -0.52 +0.00    +0.004 C 
DOCKED: ATOM     43  C   UNL d   1      23.234  -3.124  26.231 -0.62 +0.00    +0.012 C 
DOCKED: ENDBRANCH  12  42
DOCKED: BRANCH  17  44
DOCKED: ATOM     44  C   UNL d   1      25.593 -10.598  27.608 -0.58 -0.00    +0.004 C 
DOCKED: ATOM     45  C   UNL d   1      24.928 -11.350  26.725 -0.67 -0.00    +0.012 C 
DOCKED: ENDBRANCH  17  44
DOCKED: TORSDOF 10
DOCKED: TER
DOCKED: ENDMDL
________________________________________________________________________________


	BEGINNING GENETIC ALGORITHM DOCKING 96 of 100
Run: 96 Seed: 1189896955 711013529 [ Run 96 of 100 GA/GALS ]
Beginning LAMARCKIAN GENETIC ALGORITHM (LGA), with a maximum of 25000000 energy evaluations.

Final-Value: -18.922


	FINAL GENETIC ALGORITHM DOCKED STATE
	_______________________________________________


Detailed state:  trans 8.194 12.842 29.910 quatxyzw -0.646273 -0.011242 0.733472 0.210294 center -0.174 -0.001 -0.047 ntor 10 47.0532 -76.3032 -110.5490 -118.5813 -53.7831 106.1918 61.0544 78.0858 -43.4399 169.2826
State:	  8.194  12.842  29.910  -0.661 -0.011  0.750 155.721     47.05  -76.30 -110.55 -118.58  -53.78  106.19   61.05   78.09  -43.44  169.28

DOCKED: MODEL       96
DOCKED: USER    Run = 96
DOCKED: USER    DPF = D:/Protein_go_brrr/autodock/final/1A3N/heme_Fe/dock.dpf
DOCKED: USER  
DOCKED: USER    Estimated Free Energy of Binding    =  -13.81 kcal/mol  [=(1)+(2)+(3)-(4)]
DOCKED: USER    Estimated Inhibition Constant, Ki   =   75.11 pM (picomolar)  [Temperature = 298.15 K]
DOCKED: USER    
DOCKED: USER    (1) Final Intermolecular Energy     =  -16.79 kcal/mol
DOCKED: USER        vdW + Hbond + desolv Energy     =  -13.85 kcal/mol
DOCKED: USER        Electrostatic Energy            =   -2.94 kcal/mol
DOCKED: USER    (2) Final Total Internal Energy     =   -2.13 kcal/mol
DOCKED: USER    (3) Torsional Free Energy           =   +2.98 kcal/mol
DOCKED: USER    (4) Unbound System's Energy  [=(2)] =   -2.13 kcal/mol
DOCKED: USER    
DOCKED: USER    
DOCKED: USER    NEWDPF move heme_Fe_opt.pdbqt
DOCKED: USER    NEWDPF about -0.174000 -0.001000 -0.047000
DOCKED: USER    NEWDPF tran0 8.194204 12.841807 29.909983
DOCKED: USER    NEWDPF quaternion0 -0.646273 -0.011242 0.733472 0.210294
DOCKED: USER    NEWDPF axisangle0 -0.661055 -0.011499 0.750249 155.720811
DOCKED: USER    NEWDPF quat0 -0.661055 -0.011499 0.750249 155.720811
DOCKED: USER    NEWDPF dihe0 47.05 -76.30 -110.55 -118.58 -53.78 106.19 61.05 78.09 -43.44 169.28 
DOCKED: USER  keepresnum = 1 
DOCKED: USER  
DOCKED: REMARK  10 active torsions:
DOCKED: REMARK  status: ('A' for Active; 'I' for Inactive)
DOCKED: REMARK    1  A    between atoms: C_6  and  C_10 
DOCKED: REMARK    2  A    between atoms: C_10  and  C_11 
DOCKED: REMARK    3  A    between atoms: C_11  and  C_12 
DOCKED: REMARK    4  A    between atoms: C_12  and  O_14 
DOCKED: REMARK    5  A    between atoms: C_17  and  C_20 
DOCKED: REMARK    6  A    between atoms: C_24  and  C_27 
DOCKED: REMARK    7  A    between atoms: C_31  and  C_34 
DOCKED: REMARK    8  A    between atoms: C_34  and  C_35 
DOCKED: REMARK    9  A    between atoms: C_35  and  C_36 
DOCKED: REMARK   10  A    between atoms: C_36  and  O_38 
DOCKED: USER                              x       y       z     vdW  Elec       q    Type
DOCKED: USER                           _______ _______ _______ _____ _____    ______ ____
DOCKED: ROOT
DOCKED: ATOM      1  C   UNL d   1       7.824  13.325  31.870 -0.24 +0.03    +0.064 C 
DOCKED: ATOM      2  C   UNL d   1       6.655  15.337  27.509 -0.42 +0.01    +0.064 A 
DOCKED: ATOM      3  C   UNL d   1       7.909  11.231  25.356 -0.40 +0.00    +0.064 C 
DOCKED: ATOM      4  C   UNL d   1       9.146   9.300  29.555 -0.43 +0.02    +0.064 C 
DOCKED: ATOM      5  C   UNL d   1       7.458  14.300  30.834 -0.27 +0.02    +0.066 A 
DOCKED: ATOM      6  C   UNL d   1       7.145  15.628  31.074 -0.31 -0.01    -0.021 A 
DOCKED: ATOM      7  C   UNL d   1       6.816  16.185  29.863 -0.35 -0.01    -0.025 A 
DOCKED: ATOM      8  C   UNL d   1       6.942  15.175  28.929 -0.38 +0.01    +0.066 A 
DOCKED: ATOM      9  C   UNL d   1       6.425  17.611  29.624 -0.29 +0.01    +0.051 C 
DOCKED: ATOM     10  C   UNL d   1       6.823  14.395  26.580 -0.39 +0.01    +0.066 A 
DOCKED: ATOM     11  C   UNL d   1       6.431  14.544  25.247 -0.42 -0.00    -0.021 A 
DOCKED: ATOM     12  C   UNL d   1       6.766  13.366  24.608 -0.39 +0.00    +0.000 A 
DOCKED: ATOM     13  C   UNL d   1       7.344  12.550  25.596 -0.35 +0.00    +0.070 A 
DOCKED: ATOM     14  C   UNL d   1       5.709  15.723  24.627 -0.55 +0.00    +0.052 C 
DOCKED: ATOM     15  C   UNL d   1       8.419  10.420  26.313 -0.35 +0.01    +0.066 A 
DOCKED: ATOM     16  C   UNL d   1       9.039   9.210  26.030 -0.42 -0.00    -0.021 A 
DOCKED: ATOM     17  C   UNL d   1       9.394   8.650  27.240 -0.41 +0.00    +0.000 A 
DOCKED: ATOM     18  C   UNL d   1       8.977   9.531  28.234 -0.39 +0.01    +0.070 A 
DOCKED: ATOM     19  C   UNL d   1       9.269   8.590  24.678 -0.57 +0.00    +0.052 C 
DOCKED: ATOM     20  C   UNL d   1       8.775  10.232  30.627 -0.35 +0.02    +0.066 A 
DOCKED: ATOM     21  C   UNL d   1       8.759   9.927  31.995 -0.38 -0.01    -0.025 A 
DOCKED: ATOM     22  C   UNL d   1       8.392  11.092  32.637 -0.32 -0.01    -0.021 A 
DOCKED: ATOM     23  C   UNL d   1       8.194  12.055  31.640 -0.09 +0.02    +0.066 A 
DOCKED: ATOM     24  C   UNL d   1       9.067   8.612  32.672 -0.46 +0.02    +0.051 C 
DOCKED: ATOM     25  N   UNL d   1       7.342  14.032  29.522 -0.20 -0.06    -0.248 N 
DOCKED: ATOM     26  N   UNL d   1       7.371  13.173  26.800 -0.23 -0.02    -0.248 N 
DOCKED: ATOM     27  N   UNL d   1       8.416  10.640  27.664 -0.24 -0.03    -0.248 N 
DOCKED: ATOM     28  N   UNL d   1       8.385  11.512  30.413 -0.08 -0.07    -0.248 N 
DOCKED: ATOM     29 FE   UNL d   1       7.879  12.341  28.607 -0.08 +0.00    +0.000 Fe
DOCKED: ENDROOT
DOCKED: BRANCH   6  30
DOCKED: ATOM     30  C   UNL d   1       7.176  16.340  32.383 -0.25 +0.03    +0.052 C 
DOCKED: BRANCH  30  31
DOCKED: ATOM     31  C   UNL d   1       8.459  16.020  33.141 -0.18 +0.07    +0.115 C 
DOCKED: BRANCH  31  32
DOCKED: ATOM     32  C   UNL d   1       8.145  15.350  34.450 -0.14 +0.13    +0.139 C 
DOCKED: ATOM     33  O   UNL d   1       7.372  15.867  35.245 -0.43 -1.09    -0.650 OA
DOCKED: BRANCH  32  34
DOCKED: ATOM     34  O   UNL d   1       8.712  14.172  34.758 +0.07 -0.63    -0.776 OA
DOCKED: ATOM     35  H   UNL d   1       8.157  13.459  35.103 +0.05 +0.15    +0.167 HD
DOCKED: ENDBRANCH  32  34
DOCKED: ENDBRANCH  31  32
DOCKED: ENDBRANCH  30  31
DOCKED: ENDBRANCH   6  30
DOCKED: BRANCH  22  36
DOCKED: ATOM     36  C   UNL d   1       8.197  11.254  34.121 -0.28 +0.03    +0.052 C 
DOCKED: BRANCH  36  37
DOCKED: ATOM     37  C   UNL d   1       6.732  11.039  34.473 -0.34 +0.07    +0.115 C 
DOCKED: BRANCH  37  38
DOCKED: ATOM     38  C   UNL d   1       6.038  12.349  34.718 -0.24 +0.16    +0.139 C 
DOCKED: ATOM     39  O   UNL d   1       5.259  12.807  33.896 -0.60 -0.87    -0.650 OA
DOCKED: BRANCH  38  40
DOCKED: ATOM     40  O   UNL d   1       6.277  13.033  35.851 +0.00 -1.28    -0.776 OA
DOCKED: ATOM     41  H   UNL d   1       6.854  13.808  35.820 +0.03 +0.30    +0.167 HD
DOCKED: ENDBRANCH  38  40
DOCKED: ENDBRANCH  37  38
DOCKED: ENDBRANCH  36  37
DOCKED: ENDBRANCH  22  36
DOCKED: BRANCH  12  42
DOCKED: ATOM     42  C   UNL d   1       6.518  13.076  23.162 -0.46 +0.00    +0.004 C 
DOCKED: ATOM     43  C   UNL d   1       5.272  13.032  22.672 -0.50 +0.00    +0.012 C 
DOCKED: ENDBRANCH  12  42
DOCKED: BRANCH  17  44
DOCKED: ATOM     44  C   UNL d   1      10.104   7.365  27.430 -0.18 +0.00    +0.004 C 
DOCKED: ATOM     45  C   UNL d   1       9.536   6.209  27.070 -0.64 +0.00    +0.012 C 
DOCKED: ENDBRANCH  17  44
DOCKED: TORSDOF 10
DOCKED: TER
DOCKED: ENDMDL
________________________________________________________________________________


	BEGINNING GENETIC ALGORITHM DOCKING 97 of 100
Run: 97 Seed: 2068009418 202368395 [ Run 97 of 100 GA/GALS ]
Beginning LAMARCKIAN GENETIC ALGORITHM (LGA), with a maximum of 25000000 energy evaluations.

Final-Value: -17.509


	FINAL GENETIC ALGORITHM DOCKED STATE
	_______________________________________________


Detailed state:  trans 2.630 -6.777 -4.169 quatxyzw 0.286523 0.702134 0.075292 0.647490 center -0.174 -0.001 -0.047 ntor 10 -176.9885 64.2319 90.7583 -133.0963 72.6742 -118.5725 -18.5390 39.3795 -180.0000 -174.0692
State:	  2.630  -6.777  -4.169   0.376  0.921  0.099 99.295   -176.99   64.23   90.76 -133.10   72.67 -118.57  -18.54   39.38 -180.00 -174.07

DOCKED: MODEL       97
DOCKED: USER    Run = 97
DOCKED: USER    DPF = D:/Protein_go_brrr/autodock/final/1A3N/heme_Fe/dock.dpf
DOCKED: USER  
DOCKED: USER    Estimated Free Energy of Binding    =  -12.99 kcal/mol  [=(1)+(2)+(3)-(4)]
DOCKED: USER    Estimated Inhibition Constant, Ki   =  298.57 pM (picomolar)  [Temperature = 298.15 K]
DOCKED: USER    
DOCKED: USER    (1) Final Intermolecular Energy     =  -15.98 kcal/mol
DOCKED: USER        vdW + Hbond + desolv Energy     =  -14.30 kcal/mol
DOCKED: USER        Electrostatic Energy            =   -1.67 kcal/mol
DOCKED: USER    (2) Final Total Internal Energy     =   -1.53 kcal/mol
DOCKED: USER    (3) Torsional Free Energy           =   +2.98 kcal/mol
DOCKED: USER    (4) Unbound System's Energy  [=(2)] =   -1.53 kcal/mol
DOCKED: USER    
DOCKED: USER    
DOCKED: USER    NEWDPF move heme_Fe_opt.pdbqt
DOCKED: USER    NEWDPF about -0.174000 -0.001000 -0.047000
DOCKED: USER    NEWDPF tran0 2.629708 -6.777043 -4.169293
DOCKED: USER    NEWDPF quaternion0 0.286523 0.702134 0.075292 0.647490
DOCKED: USER    NEWDPF axisangle0 0.375978 0.921346 0.098799 99.294748
DOCKED: USER    NEWDPF quat0 0.375978 0.921346 0.098799 99.294748
DOCKED: USER    NEWDPF dihe0 -176.99 64.23 90.76 -133.10 72.67 -118.57 -18.54 39.38 -180.00 -174.07 
DOCKED: USER  keepresnum = 1 
DOCKED: USER  
DOCKED: REMARK  10 active torsions:
DOCKED: REMARK  status: ('A' for Active; 'I' for Inactive)
DOCKED: REMARK    1  A    between atoms: C_6  and  C_10 
DOCKED: REMARK    2  A    between atoms: C_10  and  C_11 
DOCKED: REMARK    3  A    between atoms: C_11  and  C_12 
DOCKED: REMARK    4  A    between atoms: C_12  and  O_14 
DOCKED: REMARK    5  A    between atoms: C_17  and  C_20 
DOCKED: REMARK    6  A    between atoms: C_24  and  C_27 
DOCKED: REMARK    7  A    between atoms: C_31  and  C_34 
DOCKED: REMARK    8  A    between atoms: C_34  and  C_35 
DOCKED: REMARK    9  A    between atoms: C_35  and  C_36 
DOCKED: REMARK   10  A    between atoms: C_36  and  O_38 
DOCKED: USER                              x       y       z     vdW  Elec       q    Type
DOCKED: USER                           _______ _______ _______ _____ _____    ______ ____
DOCKED: ROOT
DOCKED: ATOM      1  C   UNL d   1       2.134  -7.176  -6.120 -0.30 +0.02    +0.064 C 
DOCKED: ATOM      2  C   UNL d   1       0.650  -8.896  -1.731 -0.41 +0.00    +0.064 A 
DOCKED: ATOM      3  C   UNL d   1       2.762  -5.135   0.380 -0.41 +0.00    +0.064 C 
DOCKED: ATOM      4  C   UNL d   1       4.298  -3.508  -3.848 -0.48 +0.01    +0.064 C 
DOCKED: ATOM      5  C   UNL d   1       1.592  -8.053  -5.073 -0.32 +0.01    +0.066 A 
DOCKED: ATOM      6  C   UNL d   1       1.007  -9.288  -5.301 -0.31 -0.00    -0.021 A 
DOCKED: ATOM      7  C   UNL d   1       0.592  -9.764  -4.082 -0.34 -0.00    -0.025 A 
DOCKED: ATOM      8  C   UNL d   1       0.940  -8.800  -3.156 -0.33 +0.01    +0.066 A 
DOCKED: ATOM      9  C   UNL d   1      -0.082 -11.078  -3.830 -0.15 +0.00    +0.051 C 
DOCKED: ATOM     10  C   UNL d   1       1.025  -8.008  -0.809 -0.39 +0.00    +0.066 A 
DOCKED: ATOM     11  C   UNL d   1       0.634  -8.070   0.531 -0.43 +0.00    -0.021 A 
DOCKED: ATOM     12  C   UNL d   1       1.216  -6.987   1.158 -0.37 +0.00    +0.000 A 
DOCKED: ATOM     13  C   UNL d   1       1.933  -6.309   0.157 -0.37 +0.00    +0.070 A 
DOCKED: ATOM     14  C   UNL d   1      -0.305  -9.074   1.169 -0.60 -0.00    +0.052 C 
DOCKED: ATOM     15  C   UNL d   1       3.412  -4.448  -0.589 -0.37 +0.00    +0.066 A 
DOCKED: ATOM     16  C   UNL d   1       4.274  -3.392  -0.322 -0.47 -0.00    -0.021 A 
DOCKED: ATOM     17  C   UNL d   1       4.716  -2.919  -1.541 -0.48 +0.00    +0.000 A 
DOCKED: ATOM     18  C   UNL d   1       4.108  -3.697  -2.524 -0.38 +0.00    +0.070 A 
DOCKED: ATOM     19  C   UNL d   1       4.650  -2.831   1.022 -0.45 +0.00    +0.052 C 
DOCKED: ATOM     20  C   UNL d   1       3.725  -4.345  -4.909 -0.40 +0.01    +0.066 A 
DOCKED: ATOM     21  C   UNL d   1       3.749  -4.045  -6.278 -0.41 -0.00    -0.025 A 
DOCKED: ATOM     22  C   UNL d   1       3.138  -5.110  -6.908 -0.32 -0.00    -0.021 A 
DOCKED: ATOM     23  C   UNL d   1       2.762  -6.009  -5.903 -0.17 +0.02    +0.066 A 
DOCKED: ATOM     24  C   UNL d   1       4.310  -2.823  -6.967 -0.44 +0.00    +0.051 C 
DOCKED: ATOM     25  N   UNL d   1       1.557  -7.765  -3.761 -0.20 -0.02    -0.248 N 
DOCKED: ATOM     26  N   UNL d   1       1.810  -6.926  -1.044 -0.25 -0.00    -0.248 N 
DOCKED: ATOM     27  N   UNL d   1       3.341  -4.665  -1.939 -0.23 -0.01    -0.248 N 
DOCKED: ATOM     28  N   UNL d   1       3.083  -5.516  -4.682 -0.24 -0.05    -0.248 N 
DOCKED: ATOM     29 FE   UNL d   1       2.447  -6.219  -2.864 -0.08 +0.00    +0.000 Fe
DOCKED: ENDROOT
DOCKED: BRANCH   6  30
DOCKED: ATOM     30  C   UNL d   1       0.868  -9.993  -6.607 -0.25 +0.01    +0.052 C 
DOCKED: BRANCH  30  31
DOCKED: ATOM     31  C   UNL d   1      -0.451  -9.628  -7.280 -0.15 +0.05    +0.115 C 
DOCKED: BRANCH  31  32
DOCKED: ATOM     32  C   UNL d   1      -0.402  -9.956  -8.746 -0.12 +0.06    +0.139 C 
DOCKED: ATOM     33  O   UNL d   1      -0.440 -11.118  -9.127 +0.02 -0.16    -0.650 OA
DOCKED: BRANCH  32  34
DOCKED: ATOM     34  O   UNL d   1      -0.316  -8.970  -9.655 +0.00 -0.50    -0.776 OA
DOCKED: ATOM     35  H   UNL d   1      -0.242  -8.055  -9.350 +0.03 +0.17    +0.167 HD
DOCKED: ENDBRANCH  32  34
DOCKED: ENDBRANCH  31  32
DOCKED: ENDBRANCH  30  31
DOCKED: ENDBRANCH   6  30
DOCKED: BRANCH  22  36
DOCKED: ATOM     36  C   UNL d   1       2.887  -5.231  -8.388 -0.29 +0.01    +0.052 C 
DOCKED: BRANCH  36  37
DOCKED: ATOM     37  C   UNL d   1       1.699  -4.364  -8.780 -0.28 +0.06    +0.115 C 
DOCKED: BRANCH  37  38
DOCKED: ATOM     38  C   UNL d   1       0.853  -5.047  -9.816 -0.24 +0.12    +0.139 C 
DOCKED: ATOM     39  O   UNL d   1       0.692  -4.548 -10.920 -0.03 -0.47    -0.650 OA
DOCKED: BRANCH  38  40
DOCKED: ATOM     40  O   UNL d   1       0.259  -6.220  -9.532 -0.50 -1.18    -0.776 OA
DOCKED: ATOM     41  H   UNL d   1       0.517  -7.010 -10.028 +0.03 +0.16    +0.167 HD
DOCKED: ENDBRANCH  38  40
DOCKED: ENDBRANCH  37  38
DOCKED: ENDBRANCH  36  37
DOCKED: ENDBRANCH  22  36
DOCKED: BRANCH  12  42
DOCKED: ATOM     42  C   UNL d   1       1.059  -6.650   2.607 -0.52 +0.00    +0.004 C 
DOCKED: ATOM     43  C   UNL d   1       2.101  -6.227   3.334 -0.57 +0.00    +0.012 C 
DOCKED: ENDBRANCH  12  42
DOCKED: BRANCH  17  44
DOCKED: ATOM     44  C   UNL d   1       5.672  -1.809  -1.750 -0.63 +0.00    +0.004 C 
DOCKED: ATOM     45  C   UNL d   1       5.274  -0.536  -1.661 -0.68 +0.00    +0.012 C 
DOCKED: ENDBRANCH  17  44
DOCKED: TORSDOF 10
DOCKED: TER
DOCKED: ENDMDL
________________________________________________________________________________


	BEGINNING GENETIC ALGORITHM DOCKING 98 of 100
Run: 98 Seed: 778338725 688623664 [ Run 98 of 100 GA/GALS ]
Beginning LAMARCKIAN GENETIC ALGORITHM (LGA), with a maximum of 25000000 energy evaluations.

Final-Value: -17.282


	FINAL GENETIC ALGORITHM DOCKED STATE
	_______________________________________________


Detailed state:  trans 7.822 13.659 30.600 quatxyzw 0.651430 -0.048457 -0.699674 -0.289390 center -0.174 -0.001 -0.047 ntor 10 124.7268 -39.9406 65.8808 76.3247 126.4936 112.0128 66.1558 144.0391 -41.3729 -166.2273
State:	  7.822  13.659  30.600   0.681 -0.051 -0.731 -146.357    124.73  -39.94   65.88   76.32  126.49  112.01   66.16  144.04  -41.37 -166.23

DOCKED: MODEL       98
DOCKED: USER    Run = 98
DOCKED: USER    DPF = D:/Protein_go_brrr/autodock/final/1A3N/heme_Fe/dock.dpf
DOCKED: USER  
DOCKED: USER    Estimated Free Energy of Binding    =  -13.75 kcal/mol  [=(1)+(2)+(3)-(4)]
DOCKED: USER    Estimated Inhibition Constant, Ki   =   83.30 pM (picomolar)  [Temperature = 298.15 K]
DOCKED: USER    
DOCKED: USER    (1) Final Intermolecular Energy     =  -16.73 kcal/mol
DOCKED: USER        vdW + Hbond + desolv Energy     =  -14.09 kcal/mol
DOCKED: USER        Electrostatic Energy            =   -2.64 kcal/mol
DOCKED: USER    (2) Final Total Internal Energy     =   -0.55 kcal/mol
DOCKED: USER    (3) Torsional Free Energy           =   +2.98 kcal/mol
DOCKED: USER    (4) Unbound System's Energy  [=(2)] =   -0.55 kcal/mol
DOCKED: USER    
DOCKED: USER    
DOCKED: USER    NEWDPF move heme_Fe_opt.pdbqt
DOCKED: USER    NEWDPF about -0.174000 -0.001000 -0.047000
DOCKED: USER    NEWDPF tran0 7.822192 13.659319 30.600418
DOCKED: USER    NEWDPF quaternion0 0.651430 -0.048457 -0.699674 -0.289390
DOCKED: USER    NEWDPF axisangle0 0.680550 -0.050623 -0.730951 -146.357102
DOCKED: USER    NEWDPF quat0 0.680550 -0.050623 -0.730951 -146.357102
DOCKED: USER    NEWDPF dihe0 124.73 -39.94 65.88 76.32 126.49 112.01 66.16 144.04 -41.37 -166.23 
DOCKED: USER  keepresnum = 1 
DOCKED: USER  
DOCKED: REMARK  10 active torsions:
DOCKED: REMARK  status: ('A' for Active; 'I' for Inactive)
DOCKED: REMARK    1  A    between atoms: C_6  and  C_10 
DOCKED: REMARK    2  A    between atoms: C_10  and  C_11 
DOCKED: REMARK    3  A    between atoms: C_11  and  C_12 
DOCKED: REMARK    4  A    between atoms: C_12  and  O_14 
DOCKED: REMARK    5  A    between atoms: C_17  and  C_20 
DOCKED: REMARK    6  A    between atoms: C_24  and  C_27 
DOCKED: REMARK    7  A    between atoms: C_31  and  C_34 
DOCKED: REMARK    8  A    between atoms: C_34  and  C_35 
DOCKED: REMARK    9  A    between atoms: C_35  and  C_36 
DOCKED: REMARK   10  A    between atoms: C_36  and  O_38 
DOCKED: USER                              x       y       z     vdW  Elec       q    Type
DOCKED: USER                           _______ _______ _______ _____ _____    ______ ____
DOCKED: ROOT
DOCKED: ATOM      1  C   UNL d   1       7.270  14.471  32.402 -0.30 +0.04    +0.064 C 
DOCKED: ATOM      2  C   UNL d   1       6.375  15.574  27.668 -0.44 +0.01    +0.064 A 
DOCKED: ATOM      3  C   UNL d   1       7.987  11.225  26.422 -0.38 +0.00    +0.064 C 
DOCKED: ATOM      4  C   UNL d   1       8.960  10.176  30.987 -0.41 +0.02    +0.064 C 
DOCKED: ATOM      5  C   UNL d   1       6.947  15.216  31.178 -0.30 +0.03    +0.066 A 
DOCKED: ATOM      6  C   UNL d   1       6.555  16.544  31.140 -0.28 -0.01    -0.021 A 
DOCKED: ATOM      7  C   UNL d   1       6.303  16.848  29.826 -0.38 -0.01    -0.025 A 
DOCKED: ATOM      8  C   UNL d   1       6.551  15.693  29.110 -0.40 +0.01    +0.066 A 
DOCKED: ATOM      9  C   UNL d   1       5.868  18.180  29.296 -0.39 +0.00    +0.051 C 
DOCKED: ATOM     10  C   UNL d   1       6.662  14.489  26.947 -0.37 +0.01    +0.066 A 
DOCKED: ATOM     11  C   UNL d   1       6.375  14.366  25.585 -0.40 -0.00    -0.021 A 
DOCKED: ATOM     12  C   UNL d   1       6.815  13.114  25.205 -0.39 +0.00    +0.000 A 
DOCKED: ATOM     13  C   UNL d   1       7.346  12.529  26.368 -0.35 +0.00    +0.070 A 
DOCKED: ATOM     14  C   UNL d   1       5.654  15.366  24.704 -0.53 +0.00    +0.052 C 
DOCKED: ATOM     15  C   UNL d   1       8.453  10.636  27.549 -0.34 +0.01    +0.066 A 
DOCKED: ATOM     16  C   UNL d   1       9.149   9.434  27.544 -0.41 -0.00    -0.021 A 
DOCKED: ATOM     17  C   UNL d   1       9.427   9.127  28.860 -0.44 +0.00    +0.000 A 
DOCKED: ATOM     18  C   UNL d   1       8.890  10.150  29.638 -0.38 +0.02    +0.070 A 
DOCKED: ATOM     19  C   UNL d   1       9.517   8.590  26.353 -0.45 +0.01    +0.052 C 
DOCKED: ATOM     20  C   UNL d   1       8.460  11.265  31.835 -0.29 +0.02    +0.066 A 
DOCKED: ATOM     21  C   UNL d   1       8.345  11.217  33.232 -0.29 -0.01    -0.025 A 
DOCKED: ATOM     22  C   UNL d   1       7.873  12.455  33.615 -0.23 -0.01    -0.021 A 
DOCKED: ATOM     23  C   UNL d   1       7.714  13.205  32.443 -0.22 +0.03    +0.066 A 
DOCKED: ATOM     24  C   UNL d   1       8.655  10.069  34.164 -0.35 +0.03    +0.051 C 
DOCKED: ATOM     25  N   UNL d   1       6.952  14.705  29.934 -0.22 -0.07    -0.248 N 
DOCKED: ATOM     26  N   UNL d   1       7.244  13.363  27.432 -0.23 -0.03    -0.248 N 
DOCKED: ATOM     27  N   UNL d   1       8.329  11.100  28.831 -0.22 -0.05    -0.248 N 
DOCKED: ATOM     28  N   UNL d   1       8.031  12.459  31.357 -0.07 -0.09    -0.248 N 
DOCKED: ATOM     29 FE   UNL d   1       7.638  12.909  29.395 -0.08 +0.00    +0.000 Fe
DOCKED: ENDROOT
DOCKED: BRANCH   6  30
DOCKED: ATOM     30  C   UNL d   1       6.445  17.485  32.292 -0.15 +0.03    +0.052 C 
DOCKED: BRANCH  30  31
DOCKED: ATOM     31  C   UNL d   1       7.697  17.424  33.160 -0.17 +0.06    +0.115 C 
DOCKED: BRANCH  31  32
DOCKED: ATOM     32  C   UNL d   1       7.371  16.864  34.516 -0.11 +0.15    +0.139 C 
DOCKED: ATOM     33  O   UNL d   1       7.993  15.911  34.963 -0.23 -0.70    -0.650 OA
DOCKED: BRANCH  32  34
DOCKED: ATOM     34  O   UNL d   1       6.387  17.408  35.252 -0.39 -1.21    -0.776 OA
DOCKED: ATOM     35  H   UNL d   1       6.418  18.355  35.450 +0.01 +0.14    +0.167 HD
DOCKED: ENDBRANCH  32  34
DOCKED: ENDBRANCH  31  32
DOCKED: ENDBRANCH  30  31
DOCKED: ENDBRANCH   6  30
DOCKED: BRANCH  22  36
DOCKED: ATOM     36  C   UNL d   1       7.548  12.876  35.024 -0.18 +0.05    +0.052 C 
DOCKED: BRANCH  36  37
DOCKED: ATOM     37  C   UNL d   1       6.317  12.127  35.512 -0.23 +0.12    +0.115 C 
DOCKED: BRANCH  37  38
DOCKED: ATOM     38  C   UNL d   1       5.322  11.945  34.401 -0.36 +0.13    +0.139 C 
DOCKED: ATOM     39  O   UNL d   1       5.088  10.835  33.947 +0.09 -0.33    -0.650 OA
DOCKED: BRANCH  38  40
DOCKED: ATOM     40  O   UNL d   1       4.681  13.012  33.893 -0.54 -1.20    -0.776 OA
DOCKED: ATOM     41  H   UNL d   1       4.539  13.064  32.937 -0.38 +0.12    +0.167 HD
DOCKED: ENDBRANCH  38  40
DOCKED: ENDBRANCH  37  38
DOCKED: ENDBRANCH  36  37
DOCKED: ENDBRANCH  22  36
DOCKED: BRANCH  12  42
DOCKED: ATOM     42  C   UNL d   1       6.701  12.549  23.825 -0.42 +0.00    +0.004 C 
DOCKED: ATOM     43  C   UNL d   1       7.792  12.303  23.088 -0.44 +0.00    +0.012 C 
DOCKED: ENDBRANCH  12  42
DOCKED: BRANCH  17  44
DOCKED: ATOM     44  C   UNL d   1      10.177   7.944  29.340 -0.48 +0.00    +0.004 C 
DOCKED: ATOM     45  C   UNL d   1      11.186   8.078  30.207 -0.55 +0.00    +0.012 C 
DOCKED: ENDBRANCH  17  44
DOCKED: TORSDOF 10
DOCKED: TER
DOCKED: ENDMDL
________________________________________________________________________________


	BEGINNING GENETIC ALGORITHM DOCKING 99 of 100
Run: 99 Seed: 424043205 878543807 [ Run 99 of 100 GA/GALS ]
Beginning LAMARCKIAN GENETIC ALGORITHM (LGA), with a maximum of 25000000 energy evaluations.

Final-Value: -17.623


	FINAL GENETIC ALGORITHM DOCKED STATE
	_______________________________________________


Detailed state:  trans 23.479 -6.559 32.492 quatxyzw 0.046591 -0.672894 -0.096511 0.731934 center -0.174 -0.001 -0.047 ntor 10 -158.3007 145.2543 -98.3961 -123.5251 14.9152 -29.5596 22.1619 73.8447 -139.6202 171.3321
State:	 23.479  -6.559  32.492   0.068 -0.988 -0.142 85.902   -158.30  145.25  -98.40 -123.53   14.92  -29.56   22.16   73.84 -139.62  171.33

DOCKED: MODEL       99
DOCKED: USER    Run = 99
DOCKED: USER    DPF = D:/Protein_go_brrr/autodock/final/1A3N/heme_Fe/dock.dpf
DOCKED: USER  
DOCKED: USER    Estimated Free Energy of Binding    =  -13.76 kcal/mol  [=(1)+(2)+(3)-(4)]
DOCKED: USER    Estimated Inhibition Constant, Ki   =   81.96 pM (picomolar)  [Temperature = 298.15 K]
DOCKED: USER    
DOCKED: USER    (1) Final Intermolecular Energy     =  -16.74 kcal/mol
DOCKED: USER        vdW + Hbond + desolv Energy     =  -14.43 kcal/mol
DOCKED: USER        Electrostatic Energy            =   -2.31 kcal/mol
DOCKED: USER    (2) Final Total Internal Energy     =   -0.88 kcal/mol
DOCKED: USER    (3) Torsional Free Energy           =   +2.98 kcal/mol
DOCKED: USER    (4) Unbound System's Energy  [=(2)] =   -0.88 kcal/mol
DOCKED: USER    
DOCKED: USER    
DOCKED: USER    NEWDPF move heme_Fe_opt.pdbqt
DOCKED: USER    NEWDPF about -0.174000 -0.001000 -0.047000
DOCKED: USER    NEWDPF tran0 23.478674 -6.558723 32.492202
DOCKED: USER    NEWDPF quaternion0 0.046591 -0.672894 -0.096511 0.731934
DOCKED: USER    NEWDPF axisangle0 0.068378 -0.987554 -0.141642 85.902399
DOCKED: USER    NEWDPF quat0 0.068378 -0.987554 -0.141642 85.902399
DOCKED: USER    NEWDPF dihe0 -158.30 145.25 -98.40 -123.53 14.92 -29.56 22.16 73.84 -139.62 171.33 
DOCKED: USER  keepresnum = 1 
DOCKED: USER  
DOCKED: REMARK  10 active torsions:
DOCKED: REMARK  status: ('A' for Active; 'I' for Inactive)
DOCKED: REMARK    1  A    between atoms: C_6  and  C_10 
DOCKED: REMARK    2  A    between atoms: C_10  and  C_11 
DOCKED: REMARK    3  A    between atoms: C_11  and  C_12 
DOCKED: REMARK    4  A    between atoms: C_12  and  O_14 
DOCKED: REMARK    5  A    between atoms: C_17  and  C_20 
DOCKED: REMARK    6  A    between atoms: C_24  and  C_27 
DOCKED: REMARK    7  A    between atoms: C_31  and  C_34 
DOCKED: REMARK    8  A    between atoms: C_34  and  C_35 
DOCKED: REMARK    9  A    between atoms: C_35  and  C_36 
DOCKED: REMARK   10  A    between atoms: C_36  and  O_38 
DOCKED: USER                              x       y       z     vdW  Elec       q    Type
DOCKED: USER                           _______ _______ _______ _____ _____    ______ ____
DOCKED: ROOT
DOCKED: ATOM      1  C   UNL d   1      23.860  -6.667  34.506 -0.28 +0.02    +0.064 C 
DOCKED: ATOM      2  C   UNL d   1      24.626  -9.667  30.653 -0.40 +0.00    +0.064 A 
DOCKED: ATOM      3  C   UNL d   1      23.787  -5.974  27.699 -0.44 +0.00    +0.064 C 
DOCKED: ATOM      4  C   UNL d   1      22.939  -3.078  31.411 -0.50 +0.01    +0.064 C 
DOCKED: ATOM      5  C   UNL d   1      24.071  -7.873  33.694 -0.31 +0.01    +0.066 A 
DOCKED: ATOM      6  C   UNL d   1      24.234  -9.151  34.204 -0.29 -0.01    -0.021 A 
DOCKED: ATOM      7  C   UNL d   1      24.450  -9.983  33.134 -0.31 -0.00    -0.025 A 
DOCKED: ATOM      8  C   UNL d   1      24.411  -9.180  32.010 -0.34 +0.01    +0.066 A 
DOCKED: ATOM      9  C   UNL d   1      24.662 -11.464  33.196 -0.05 +0.01    +0.051 C 
DOCKED: ATOM     10  C   UNL d   1      24.536  -8.925  29.548 -0.39 +0.00    +0.066 A 
DOCKED: ATOM     11  C   UNL d   1      24.859  -9.393  28.272 -0.48 -0.00    -0.021 A 
DOCKED: ATOM     12  C   UNL d   1      24.642  -8.342  27.404 -0.43 +0.00    +0.000 A 
DOCKED: ATOM     13  C   UNL d   1      24.201  -7.273  28.204 -0.38 +0.00    +0.070 A 
DOCKED: ATOM     14  C   UNL d   1      25.414 -10.754  27.906 -0.58 -0.00    +0.052 C 
DOCKED: ATOM     15  C   UNL d   1      23.411  -4.926  28.469 -0.38 +0.00    +0.066 A 
DOCKED: ATOM     16  C   UNL d   1      22.927  -3.734  27.945 -0.45 -0.00    -0.021 A 
DOCKED: ATOM     17  C   UNL d   1      22.685  -2.896  29.014 -0.48 +0.00    +0.000 A 
DOCKED: ATOM     18  C   UNL d   1      23.032  -3.596  30.167 -0.40 +0.01    +0.070 A 
DOCKED: ATOM     19  C   UNL d   1      22.724  -3.384  26.496 -0.51 +0.00    +0.052 C 
DOCKED: ATOM     20  C   UNL d   1      23.235  -3.806  32.651 -0.37 +0.01    +0.066 A 
DOCKED: ATOM     21  C   UNL d   1      23.337  -3.229  33.925 -0.40 -0.00    -0.025 A 
DOCKED: ATOM     22  C   UNL d   1      23.587  -4.271  34.793 -0.28 -0.00    -0.021 A 
DOCKED: ATOM     23  C   UNL d   1      23.635  -5.436  34.018 -0.09 +0.01    +0.066 A 
DOCKED: ATOM     24  C   UNL d   1      23.210  -1.774  34.314 -0.47 +0.00    +0.051 C 
DOCKED: ATOM     25  N   UNL d   1      24.170  -7.899  32.353 -0.22 -0.03    -0.248 N 
DOCKED: ATOM     26  N   UNL d   1      24.144  -7.626  29.512 -0.23 -0.00    -0.248 N 
DOCKED: ATOM     27  N   UNL d   1      23.436  -4.860  29.837 -0.25 -0.02    -0.248 N 
DOCKED: ATOM     28  N   UNL d   1      23.464  -5.140  32.707 -0.18 -0.04    -0.248 N 
DOCKED: ATOM     29 FE   UNL d   1      23.804  -6.381  31.110 -0.09 +0.00    +0.000 Fe
DOCKED: ENDROOT
DOCKED: BRANCH   6  30
DOCKED: ATOM     30  C   UNL d   1      24.167  -9.566  35.634 -0.23 +0.02    +0.052 C 
DOCKED: BRANCH  30  31
DOCKED: ATOM     31  C   UNL d   1      25.057  -8.678  36.497 -0.08 +0.10    +0.115 C 
DOCKED: BRANCH  31  32
DOCKED: ATOM     32  C   UNL d   1      25.420  -9.381  37.775 -0.09 +0.14    +0.139 C 
DOCKED: ATOM     33  O   UNL d   1      25.248 -10.586  37.895 -0.03 -0.38    -0.650 OA
DOCKED: BRANCH  32  34
DOCKED: ATOM     34  O   UNL d   1      25.940  -8.688  38.802 -0.42 -1.20    -0.776 OA
DOCKED: ATOM     35  H   UNL d   1      25.791  -7.733  38.848 +0.01 +0.25    +0.167 HD
DOCKED: ENDBRANCH  32  34
DOCKED: ENDBRANCH  31  32
DOCKED: ENDBRANCH  30  31
DOCKED: ENDBRANCH   6  30
DOCKED: BRANCH  22  36
DOCKED: ATOM     36  C   UNL d   1      23.816  -4.145  36.276 -0.24 +0.01    +0.052 C 
DOCKED: BRANCH  36  37
DOCKED: ATOM     37  C   UNL d   1      25.304  -3.992  36.555 -0.24 +0.04    +0.115 C 
DOCKED: BRANCH  37  38
DOCKED: ATOM     38  C   UNL d   1      25.872  -5.249  37.150 -0.21 +0.10    +0.139 C 
DOCKED: ATOM     39  O   UNL d   1      25.178  -5.987  37.834 -0.02 -0.47    -0.650 OA
DOCKED: BRANCH  38  40
DOCKED: ATOM     40  O   UNL d   1      27.160  -5.571  36.935 -0.16 -1.06    -0.776 OA
DOCKED: ATOM     41  H   UNL d   1      27.562  -5.356  36.081 -0.34 +0.15    +0.167 HD
DOCKED: ENDBRANCH  38  40
DOCKED: ENDBRANCH  37  38
DOCKED: ENDBRANCH  36  37
DOCKED: ENDBRANCH  22  36
DOCKED: BRANCH  12  42
DOCKED: ATOM     42  C   UNL d   1      24.870  -8.390  25.927 -0.52 +0.00    +0.004 C 
DOCKED: ATOM     43  C   UNL d   1      26.028  -8.835  25.422 -0.58 +0.00    +0.012 C 
DOCKED: ENDBRANCH  12  42
DOCKED: BRANCH  17  44
DOCKED: ATOM     44  C   UNL d   1      22.139  -1.522  28.938 -0.62 +0.00    +0.004 C 
DOCKED: ATOM     45  C   UNL d   1      22.865  -0.524  28.425 -0.68 +0.00    +0.012 C 
DOCKED: ENDBRANCH  17  44
DOCKED: TORSDOF 10
DOCKED: TER
DOCKED: ENDMDL
________________________________________________________________________________


	BEGINNING GENETIC ALGORITHM DOCKING 100 of 100
Run: 100 Seed: 206158010 1685754881 [ Run 100 of 100 GA/GALS ]
Beginning LAMARCKIAN GENETIC ALGORITHM (LGA), with a maximum of 25000000 energy evaluations.

Final-Value: -17.889


	FINAL GENETIC ALGORITHM DOCKED STATE
	_______________________________________________


Detailed state:  trans 2.874 -6.666 -4.515 quatxyzw -0.258753 -0.721627 -0.092686 -0.635383 center -0.174 -0.001 -0.047 ntor 10 -8.5014 -167.7078 89.8603 -139.4391 95.8509 -19.8600 -82.9592 -62.3077 169.6932 112.6624
State:	  2.874  -6.666  -4.515  -0.335 -0.935 -0.120 -101.103     -8.50 -167.71   89.86 -139.44   95.85  -19.86  -82.96  -62.31  169.69  112.66

DOCKED: MODEL      100
DOCKED: USER    Run = 100
DOCKED: USER    DPF = D:/Protein_go_brrr/autodock/final/1A3N/heme_Fe/dock.dpf
DOCKED: USER  
DOCKED: USER    Estimated Free Energy of Binding    =  -13.18 kcal/mol  [=(1)+(2)+(3)-(4)]
DOCKED: USER    Estimated Inhibition Constant, Ki   =  216.53 pM (picomolar)  [Temperature = 298.15 K]
DOCKED: USER    
DOCKED: USER    (1) Final Intermolecular Energy     =  -16.17 kcal/mol
DOCKED: USER        vdW + Hbond + desolv Energy     =  -14.09 kcal/mol
DOCKED: USER        Electrostatic Energy            =   -2.08 kcal/mol
DOCKED: USER    (2) Final Total Internal Energy     =   -1.72 kcal/mol
DOCKED: USER    (3) Torsional Free Energy           =   +2.98 kcal/mol
DOCKED: USER    (4) Unbound System's Energy  [=(2)] =   -1.72 kcal/mol
DOCKED: USER    
DOCKED: USER    
DOCKED: USER    NEWDPF move heme_Fe_opt.pdbqt
DOCKED: USER    NEWDPF about -0.174000 -0.001000 -0.047000
DOCKED: USER    NEWDPF tran0 2.873749 -6.665673 -4.514672
DOCKED: USER    NEWDPF quaternion0 -0.258753 -0.721627 -0.092686 -0.635383
DOCKED: USER    NEWDPF axisangle0 -0.335086 -0.934511 -0.120028 -101.103256
DOCKED: USER    NEWDPF quat0 -0.335086 -0.934511 -0.120028 -101.103256
DOCKED: USER    NEWDPF dihe0 -8.50 -167.71 89.86 -139.44 95.85 -19.86 -82.96 -62.31 169.69 112.66 
DOCKED: USER  keepresnum = 1 
DOCKED: USER  
DOCKED: REMARK  10 active torsions:
DOCKED: REMARK  status: ('A' for Active; 'I' for Inactive)
DOCKED: REMARK    1  A    between atoms: C_6  and  C_10 
DOCKED: REMARK    2  A    between atoms: C_10  and  C_11 
DOCKED: REMARK    3  A    between atoms: C_11  and  C_12 
DOCKED: REMARK    4  A    between atoms: C_12  and  O_14 
DOCKED: REMARK    5  A    between atoms: C_17  and  C_20 
DOCKED: REMARK    6  A    between atoms: C_24  and  C_27 
DOCKED: REMARK    7  A    between atoms: C_31  and  C_34 
DOCKED: REMARK    8  A    between atoms: C_34  and  C_35 
DOCKED: REMARK    9  A    between atoms: C_35  and  C_36 
DOCKED: REMARK   10  A    between atoms: C_36  and  O_38 
DOCKED: USER                              x       y       z     vdW  Elec       q    Type
DOCKED: USER                           _______ _______ _______ _____ _____    ______ ____
DOCKED: ROOT
DOCKED: ATOM      1  C   UNL d   1       2.499  -6.976  -6.508 -0.31 +0.02    +0.064 C 
DOCKED: ATOM      2  C   UNL d   1       0.820  -8.955  -2.301 -0.38 +0.00    +0.064 A 
DOCKED: ATOM      3  C   UNL d   1       2.708  -5.256   0.111 -0.42 +0.00    +0.064 C 
DOCKED: ATOM      4  C   UNL d   1       4.432  -3.378  -3.937 -0.49 +0.01    +0.064 C 
DOCKED: ATOM      5  C   UNL d   1       1.923  -7.919  -5.539 -0.32 +0.01    +0.066 A 
DOCKED: ATOM      6  C   UNL d   1       1.386  -9.154  -5.861 -0.30 -0.00    -0.021 A 
DOCKED: ATOM      7  C   UNL d   1       0.916  -9.702  -4.693 -0.32 -0.00    -0.025 A 
DOCKED: ATOM      8  C   UNL d   1       1.186  -8.778  -3.701 -0.30 +0.01    +0.066 A 
DOCKED: ATOM      9  C   UNL d   1       0.266 -11.043  -4.545 -0.17 +0.00    +0.051 C 
DOCKED: ATOM     10  C   UNL d   1       1.119  -8.106  -1.316 -0.38 +0.00    +0.066 A 
DOCKED: ATOM     11  C   UNL d   1       0.655  -8.246  -0.006 -0.45 -0.00    -0.021 A 
DOCKED: ATOM     12  C   UNL d   1       1.172  -7.183   0.706 -0.36 +0.00    +0.000 A 
DOCKED: ATOM     13  C   UNL d   1       1.925  -6.437  -0.217 -0.37 +0.00    +0.070 A 
DOCKED: ATOM     14  C   UNL d   1      -0.290  -9.304   0.527 -0.57 -0.00    +0.052 C 
DOCKED: ATOM     15  C   UNL d   1       3.392  -4.505  -0.784 -0.37 +0.00    +0.066 A 
DOCKED: ATOM     16  C   UNL d   1       4.208  -3.443  -0.417 -0.46 -0.00    -0.021 A 
DOCKED: ATOM     17  C   UNL d   1       4.704  -2.898  -1.583 -0.48 +0.00    +0.000 A 
DOCKED: ATOM     18  C   UNL d   1       4.174  -3.639  -2.637 -0.39 +0.01    +0.070 A 
DOCKED: ATOM     19  C   UNL d   1       4.494  -2.942   0.974 -0.48 +0.00    +0.052 C 
DOCKED: ATOM     20  C   UNL d   1       3.942  -4.173  -5.069 -0.41 +0.01    +0.066 A 
DOCKED: ATOM     21  C   UNL d   1       4.034  -3.803  -6.418 -0.43 -0.00    -0.025 A 
DOCKED: ATOM     22  C   UNL d   1       3.488  -4.849  -7.134 -0.34 -0.00    -0.021 A 
DOCKED: ATOM     23  C   UNL d   1       3.081  -5.807  -6.198 -0.28 +0.01    +0.066 A 
DOCKED: ATOM     24  C   UNL d   1       4.599  -2.534  -7.012 -0.32 -0.00    +0.051 C 
DOCKED: ATOM     25  N   UNL d   1       1.807  -7.699  -4.218 -0.22 -0.03    -0.248 N 
DOCKED: ATOM     26  N   UNL d   1       1.885  -6.994  -1.452 -0.24 +0.00    -0.248 N 
DOCKED: ATOM     27  N   UNL d   1       3.402  -4.654  -2.145 -0.23 -0.01    -0.248 N 
DOCKED: ATOM     28  N   UNL d   1       3.320  -5.370  -4.938 -0.24 -0.05    -0.248 N 
DOCKED: ATOM     29 FE   UNL d   1       2.604  -6.180  -3.195 -0.09 +0.00    +0.000 Fe
DOCKED: ENDROOT
DOCKED: BRANCH   6  30
DOCKED: ATOM     30  C   UNL d   1       1.339  -9.794  -7.206 -0.23 +0.01    +0.052 C 
DOCKED: BRANCH  30  31
DOCKED: ATOM     31  C   UNL d   1      -0.045  -9.642  -7.829 -0.17 +0.05    +0.115 C 
DOCKED: BRANCH  31  32
DOCKED: ATOM     32  C   UNL d   1      -0.071  -8.471  -8.771 -0.12 +0.11    +0.139 C 
DOCKED: ATOM     33  O   UNL d   1       0.101  -8.632  -9.971 -0.03 -0.41    -0.650 OA
DOCKED: BRANCH  32  34
DOCKED: ATOM     34  O   UNL d   1      -0.286  -7.230  -8.301 +0.08 -1.11    -0.776 OA
DOCKED: ATOM     35  H   UNL d   1      -0.177  -6.477  -8.897 +0.04 +0.35    +0.167 HD
DOCKED: ENDBRANCH  32  34
DOCKED: ENDBRANCH  31  32
DOCKED: ENDBRANCH  30  31
DOCKED: ENDBRANCH   6  30
DOCKED: BRANCH  22  36
DOCKED: ATOM     36  C   UNL d   1       3.323  -4.899  -8.630 -0.28 +0.01    +0.052 C 
DOCKED: BRANCH  36  37
DOCKED: ATOM     37  C   UNL d   1       2.114  -5.751  -8.985 -0.22 +0.05    +0.115 C 
DOCKED: BRANCH  37  38
DOCKED: ATOM     38  C   UNL d   1       1.064  -4.933  -9.681 -0.24 +0.11    +0.139 C 
DOCKED: ATOM     39  O   UNL d   1       1.054  -3.714  -9.583 -0.04 -0.38    -0.650 OA
DOCKED: BRANCH  38  40
DOCKED: ATOM     40  O   UNL d   1       0.118  -5.541 -10.418 -0.42 -1.10    -0.776 OA
DOCKED: ATOM     41  H   UNL d   1       0.016  -6.501 -10.353 +0.03 +0.24    +0.167 HD
DOCKED: ENDBRANCH  38  40
DOCKED: ENDBRANCH  37  38
DOCKED: ENDBRANCH  36  37
DOCKED: ENDBRANCH  22  36
DOCKED: BRANCH  12  42
DOCKED: ATOM     42  C   UNL d   1       0.925  -6.924   2.159 -0.51 +0.00    +0.004 C 
DOCKED: ATOM     43  C   UNL d   1       1.917  -6.531   2.968 -0.53 +0.00    +0.012 C 
DOCKED: ENDBRANCH  12  42
DOCKED: BRANCH  17  44
DOCKED: ATOM     44  C   UNL d   1       5.641  -1.755  -1.682 -0.64 +0.00    +0.004 C 
DOCKED: ATOM     45  C   UNL d   1       5.188  -0.497  -1.679 -0.70 +0.00    +0.012 C 
DOCKED: ENDBRANCH  17  44
DOCKED: TORSDOF 10
DOCKED: TER
DOCKED: ENDMDL
________________________________________________________________________________

DPF> analysis                             # perform a ranked cluster analysis


		CLUSTER ANALYSIS OF CONFORMATIONS
		_________________________________

Number of conformations = 100

RMSD cluster analysis will be performed using the ligand atoms only (45 / 45 total atoms).

Outputting structurally similar clusters, ranked in order of increasing energy.


________________________________________________________________________________

Number of distinct conformational clusters found = 20,  out of 100 runs,
Using an rmsd-tolerance of 2.0 A


	CLUSTERING HISTOGRAM
	____________________

________________________________________________________________________________
     |           |     |           |     |                                    
Clus | Lowest    | Run | Mean      | Num | Histogram                          
-ter | Binding   |     | Binding   | in  |                                    
Rank | Energy    |     | Energy    | Clus|    5    10   15   20   25   30   35
_____|___________|_____|___________|_____|____:____|____:____|____:____|____:___
   1 |    -14.77 |  66 |    -13.37 |  32 |################################
   2 |    -13.77 |  10 |    -12.64 |   8 |########
   3 |    -13.76 |  99 |    -13.00 |  18 |##################
   4 |    -13.48 |  34 |    -12.98 |  23 |#######################
   5 |    -13.48 |  47 |    -12.62 |   2 |##
   6 |    -13.03 |  49 |    -13.03 |   1 |#
   7 |    -12.21 |  80 |    -12.21 |   1 |#
   8 |    -12.12 |  52 |    -11.26 |   2 |##
   9 |    -10.86 |  19 |    -10.86 |   1 |#
  10 |    -10.77 |  76 |    -10.77 |   1 |#
  11 |    -10.13 |  28 |    -10.13 |   1 |#
  12 |     -8.95 |  72 |     -8.69 |   2 |##
  13 |     -8.83 |   5 |     -8.83 |   1 |#
  14 |     -8.77 |  18 |     -8.77 |   1 |#
  15 |     -7.41 |  45 |     -7.41 |   1 |#
  16 |     -7.19 |  57 |     -7.19 |   1 |#
  17 |     -6.93 |  74 |     -6.93 |   1 |#
  18 |     -6.76 |  56 |     -6.76 |   1 |#
  19 |     -5.97 |  31 |     -5.97 |   1 |#
  20 |     -5.52 |   9 |     -5.52 |   1 |#
_____|___________|_____|___________|_____|______________________________________


Number of multi-member conformational clusters found = 7, out of 100 runs.

	RMSD TABLE
	__________

_____________________________________________________________________
     |      |      |           |         |                 |
Rank | Sub- | Run  | Binding   | Cluster | Reference       | Grep
     | Rank |      | Energy    | RMSD    | RMSD            | Pattern
_____|______|______|___________|_________|_________________|___________
   1      1     66      -14.77      0.00     32.12           RANKING
   1      2     44      -14.46      0.42     32.11           RANKING
   1      3     81      -14.35      0.62     32.15           RANKING
   1      4     35      -14.05      0.94     32.24           RANKING
   1      5     11      -13.96      1.37     32.30           RANKING
   1      6      6      -13.84      0.93     32.01           RANKING
   1      7     96      -13.81      1.22     32.29           RANKING
   1      8      4      -13.78      1.89     33.03           RANKING
   1      9     98      -13.75      1.86     32.89           RANKING
   1     10     71      -13.71      1.03     32.19           RANKING
   1     11     37      -13.69      1.55     31.88           RANKING
   1     12     40      -13.68      0.97     31.94           RANKING
   1     13     30      -13.67      1.23     32.96           RANKING
   1     14     94      -13.58      1.23     32.93           RANKING
   1     15     87      -13.54      1.17     32.29           RANKING
   1     16     93      -13.43      1.17     31.71           RANKING
   1     17     89      -13.39      1.73     32.74           RANKING
   1     18     14      -13.36      1.15     32.50           RANKING
   1     19     86      -13.25      1.27     32.23           RANKING
   1     20     29      -13.22      1.33     32.28           RANKING
   1     21     91      -13.16      1.10     32.47           RANKING
   1     22     53      -12.98      1.11     32.53           RANKING
   1     23     15      -12.91      1.86     33.26           RANKING
   1     24     85      -12.90      1.35     31.80           RANKING
   1     25     68      -12.88      1.14     31.79           RANKING
   1     26     82      -12.85      1.55     33.40           RANKING
   1     27     38      -12.79      1.49     33.22           RANKING
   1     28     92      -12.68      1.33     31.53           RANKING
   1     29     24      -12.48      1.16     32.45           RANKING
   1     30      7      -12.35      1.37     33.05           RANKING
   1     31     59      -12.34      1.24     31.70           RANKING
   1     32     65      -12.33      1.72     33.64           RANKING
   2      1     10      -13.77      0.00     22.59           RANKING
   2      2     61      -13.67      1.17     22.64           RANKING
   2      3     84      -13.20      1.43     22.93           RANKING
   2      4     20      -13.13      0.60     22.54           RANKING
   2      5     78      -13.10      0.32     22.65           RANKING
   2      6     42      -11.77      1.03     22.23           RANKING
   2      7     67      -11.56      1.68     23.13           RANKING
   2      8     39      -10.89      1.67     23.13           RANKING
   3      1     99      -13.76      0.00     39.06           RANKING
   3      2     43      -13.74      0.84     39.28           RANKING
   3      3     54      -13.73      1.04     39.10           RANKING
   3      4     55      -13.42      0.96     39.12           RANKING
   3      5      3      -13.41      0.86     38.89           RANKING
   3      6     83      -13.37      0.97     39.16           RANKING
   3      7     23      -13.25      0.95     38.60           RANKING
   3      8     90      -13.20      0.81     38.90           RANKING
   3      9     41      -13.18      0.62     38.78           RANKING
   3     10     21      -13.14      0.68     38.93           RANKING
   3     11     33      -13.13      1.15     39.04           RANKING
   3     12      8      -13.08      1.03     38.89           RANKING
   3     13     95      -13.04      1.01     39.13           RANKING
   3     14      1      -12.98      0.86     38.94           RANKING
   3     15     62      -12.71      0.85     39.00           RANKING
   3     16     63      -12.12      1.28     39.05           RANKING
   3     17     36      -11.95      1.26     39.21           RANKING
   3     18     25      -10.71      1.72     40.10           RANKING
   4      1     34      -13.48      0.00      6.97           RANKING
   4      2     32      -13.40      0.62      7.10           RANKING
   4      3     22      -13.39      0.70      7.08           RANKING
   4      4     16      -13.37      0.47      7.02           RANKING
   4      5     75      -13.36      0.18      6.99           RANKING
   4      6     69      -13.34      0.72      6.93           RANKING
   4      7     13      -13.31      0.46      7.01           RANKING
   4      8     48      -13.28      0.52      6.95           RANKING
   4      9     26      -13.23      0.65      7.02           RANKING
   4     10     64      -13.21      0.88      7.23           RANKING
   4     11     17      -13.21      0.90      7.39           RANKING
   4     12    100      -13.18      0.40      7.00           RANKING
   4     13     46      -13.10      1.31      7.00           RANKING
   4     14     97      -12.99      0.69      7.02           RANKING
   4     15     77      -12.99      0.93      7.21           RANKING
   4     16     27      -12.87      0.89      7.31           RANKING
   4     17     58      -12.75      0.55      7.10           RANKING
   4     18     88      -12.64      0.65      7.20           RANKING
   4     19     73      -12.61      1.08      7.63           RANKING
   4     20     70      -12.55      0.76      7.21           RANKING
   4     21     79      -12.22      1.02      7.58           RANKING
   4     22     51      -12.00      1.00      7.46           RANKING
   4     23      2      -11.97      0.84      7.30           RANKING
   5      1     47      -13.48      0.00     21.12           RANKING
   5      2     60      -11.77      0.99     20.52           RANKING
   6      1     49      -13.03      0.00     33.13           RANKING
   7      1     80      -12.21      0.00     37.42           RANKING
   8      1     52      -12.12      0.00      7.03           RANKING
   8      2     50      -10.39      1.96      8.05           RANKING
   9      1     19      -10.86      0.00      8.46           RANKING
  10      1     76      -10.77      0.00      6.71           RANKING
  11      1     28      -10.13      0.00     34.29           RANKING
  12      1     72       -8.95      0.00     21.74           RANKING
  12      2     12       -8.43      1.04     21.99           RANKING
  13      1      5       -8.83      0.00     18.63           RANKING
  14      1     18       -8.77      0.00     25.14           RANKING
  15      1     45       -7.41      0.00     22.53           RANKING
  16      1     57       -7.19      0.00     20.84           RANKING
  17      1     74       -6.93      0.00     25.22           RANKING
  18      1     56       -6.76      0.00     24.56           RANKING
  19      1     31       -5.97      0.00     22.15           RANKING
  20      1      9       -5.52      0.00     21.80           RANKING
_______________________________________________________________________



	INFORMATION ENTROPY ANALYSIS FOR THIS CLUSTERING
	________________________________________________


Information entropy for this clustering = 0.44  (rmstol = 2.00 Angstrom)

_______________________________________________________________________


	STATISTICAL MECHANICAL ANALYSIS
	_______________________________


Partition function, Q =   102.12            at Temperature, T = 298.15 K
Free energy,        A ~ -2740.89 kcal/mol   at Temperature, T = 298.15 K
Internal energy,    U =   -12.42 kcal/mol   at Temperature, T = 298.15 K
Entropy,            S =     9.15 kcal/mol/K at Temperature, T = 298.15 K

_______________________________________________________________________


	LOWEST ENERGY DOCKED CONFORMATION from EACH CLUSTER
	___________________________________________________



Keeping original residue number (specified in the input PDBQ file) for outputting.

MODEL       66
USER    Run = 66
USER    Cluster Rank = 1
USER    Number of conformations in this cluster = 32
USER  
USER    RMSD from reference structure       = 32.115 A
USER  
USER    Estimated Free Energy of Binding    =  -14.77 kcal/mol  [=(1)+(2)+(3)-(4)]
USER    Estimated Inhibition Constant, Ki   =   14.89 pM (picomolar)  [Temperature = 298.15 K]
USER    
USER    (1) Final Intermolecular Energy     =  -17.75 kcal/mol
USER        vdW + Hbond + desolv Energy     =  -14.24 kcal/mol
USER        Electrostatic Energy            =   -3.51 kcal/mol
USER    (2) Final Total Internal Energy     =   -0.14 kcal/mol
USER    (3) Torsional Free Energy           =   +2.98 kcal/mol
USER    (4) Unbound System's Energy  [=(2)] =   -0.14 kcal/mol
USER    
USER    
USER  
USER    DPF = D:/Protein_go_brrr/autodock/final/1A3N/heme_Fe/dock.dpf
USER    NEWDPF move	heme_Fe_opt.pdbqt
USER    NEWDPF about	-0.174000 -0.001000 -0.047000
USER    NEWDPF tran0	8.204381 13.089786 29.272533
USER    NEWDPF axisangle0	-0.627084 -0.018253 0.778738 152.846594
USER    NEWDPF quaternion0	-0.609561 -0.017743 0.756977 0.234747
USER    NEWDPF dihe0	149.48 -139.83 65.29 -132.50 88.14 8.11 63.78 61.62 -72.72 20.94 
USER  
USER                              x       y       z    vdW   Elec        q     RMS 
ATOM      1  C   UNL d   1       7.986  13.637  31.238 -0.30 +0.02    +0.064    32.115
ATOM      2  C   UNL d   1       6.374  15.435  26.926 -0.44 +0.01    +0.064    32.115
ATOM      3  C   UNL d   1       7.589  11.292  24.823 -0.35 +0.00    +0.064    32.115
ATOM      4  C   UNL d   1       9.252   9.571  28.965 -0.46 +0.01    +0.064    32.115
ATOM      5  C   UNL d   1       7.497  14.558  30.203 -0.31 +0.02    +0.066    32.115
ATOM      6  C   UNL d   1       7.157  15.883  30.421 -0.32 -0.01    -0.021    32.115
ATOM      7  C   UNL d   1       6.705  16.381  29.224 -0.36 -0.00    -0.025    32.115
ATOM      8  C   UNL d   1       6.788  15.339  28.320 -0.40 +0.01    +0.066    32.115
ATOM      9  C   UNL d   1       6.243  17.782  28.968 -0.34 +0.01    +0.051    32.115
ATOM     10  C   UNL d   1       6.497  14.464  26.020 -0.38 +0.01    +0.066    32.115
ATOM     11  C   UNL d   1       5.987  14.546  24.722 -0.42 -0.00    -0.021    32.115
ATOM     12  C   UNL d   1       6.309  13.356  24.099 -0.39 +0.00    +0.000    32.115
ATOM     13  C   UNL d   1       6.999  12.599  25.062 -0.34 +0.00    +0.070    32.115
ATOM     14  C   UNL d   1       5.172  15.675  24.124 -0.58 +0.00    +0.052    32.115
ATOM     15  C   UNL d   1       8.209  10.537  25.760 -0.35 +0.00    +0.066    32.115
ATOM     16  C   UNL d   1       8.847   9.338  25.469 -0.43 -0.00    -0.021    32.115
ATOM     17  C   UNL d   1       9.324   8.838  26.663 -0.42 +0.00    +0.000    32.115
ATOM     18  C   UNL d   1       8.962   9.744  27.657 -0.38 +0.01    +0.070    32.115
ATOM     19  C   UNL d   1       8.983   8.673  24.125 -0.62 +0.00    +0.052    32.115
ATOM     20  C   UNL d   1       8.940  10.531  30.031 -0.36 +0.02    +0.066    32.115
ATOM     21  C   UNL d   1       9.053  10.280  31.406 -0.37 -0.01    -0.025    32.115
ATOM     22  C   UNL d   1       8.700  11.457  32.034 -0.30 -0.01    -0.021    32.115
ATOM     23  C   UNL d   1       8.381  12.372  31.024 -0.14 +0.02    +0.066    32.115
ATOM     24  C   UNL d   1       9.466   9.004  32.101 -0.46 +0.02    +0.051    32.115
ATOM     25  N   UNL d   1       7.279  14.234  28.917 -0.23 -0.05    -0.248    32.115
ATOM     26  N   UNL d   1       7.106  13.270  26.235 -0.23 -0.02    -0.248    32.115
ATOM     27  N   UNL d   1       8.314  10.810  27.098 -0.23 -0.02    -0.248    32.115
ATOM     28  N   UNL d   1       8.487  11.788  29.805 -0.21 -0.06    -0.248    32.115
ATOM     29 FE   UNL d   1       7.797  12.527  28.021 -0.08 +0.00    +0.000    32.115
ATOM     30  C   UNL d   1       7.273  16.646  31.696 -0.28 +0.02    +0.052    32.115
ATOM     31  C   UNL d   1       8.194  15.925  32.675 -0.20 +0.06    +0.115    32.115
ATOM     32  C   UNL d   1       7.430  15.498  33.898 -0.15 +0.16    +0.139    32.115
ATOM     33  O   UNL d   1       6.857  14.419  33.929 -0.04 -0.93    -0.650    32.115
ATOM     34  O   UNL d   1       7.371  16.304  34.971 -0.53 -1.15    -0.776    32.115
ATOM     35  H   UNL d   1       8.114  16.894  35.157 +0.02 +0.14    +0.167    32.115
ATOM     36  C   UNL d   1       8.626  11.671  33.523 -0.27 +0.03    +0.052    32.115
ATOM     37  C   UNL d   1       9.622  12.743  33.937 -0.21 +0.09    +0.115    32.115
ATOM     38  C   UNL d   1      10.635  12.194  34.902 -0.08 +0.18    +0.139    32.115
ATOM     39  O   UNL d   1      10.683  10.997  35.144 -0.27 -0.91    -0.650    32.115
ATOM     40  O   UNL d   1      11.499  13.024  35.513 -0.34 -1.37    -0.776    32.115
ATOM     41  H   UNL d   1      11.185  13.884  35.823 +0.04 +0.17    +0.167    32.115
ATOM     42  C   UNL d   1       5.949  13.001  22.692 -0.49 +0.00    +0.004    32.115
ATOM     43  C   UNL d   1       6.894  12.860  21.753 -0.53 +0.00    +0.012    32.115
ATOM     44  C   UNL d   1      10.095   7.586  26.838 -0.05 +0.00    +0.004    32.115
ATOM     45  C   UNL d   1       9.480   6.399  26.842 -0.64 +0.00    +0.012    32.115
TER
ENDMDL
MODEL       10
USER    Run = 10
USER    Cluster Rank = 2
USER    Number of conformations in this cluster = 8
USER  
USER    RMSD from reference structure       = 22.592 A
USER  
USER    Estimated Free Energy of Binding    =  -13.77 kcal/mol  [=(1)+(2)+(3)-(4)]
USER    Estimated Inhibition Constant, Ki   =   80.92 pM (picomolar)  [Temperature = 298.15 K]
USER    
USER    (1) Final Intermolecular Energy     =  -16.75 kcal/mol
USER        vdW + Hbond + desolv Energy     =  -13.78 kcal/mol
USER        Electrostatic Energy            =   -2.97 kcal/mol
USER    (2) Final Total Internal Energy     =   -1.28 kcal/mol
USER    (3) Torsional Free Energy           =   +2.98 kcal/mol
USER    (4) Unbound System's Energy  [=(2)] =   -1.28 kcal/mol
USER    
USER    
USER  
USER    DPF = D:/Protein_go_brrr/autodock/final/1A3N/heme_Fe/dock.dpf
USER    NEWDPF move	heme_Fe_opt.pdbqt
USER    NEWDPF about	-0.174000 -0.001000 -0.047000
USER    NEWDPF tran0	23.544401 7.668913 -4.510672
USER    NEWDPF axisangle0	-0.732669 0.288402 -0.616458 156.879692
USER    NEWDPF quaternion0	-0.717807 0.282552 -0.603953 0.200397
USER    NEWDPF dihe0	-127.65 -126.32 65.78 -141.26 -121.64 -89.30 25.02 70.96 -54.40 167.94 
USER  
USER                              x       y       z    vdW   Elec        q     RMS 
ATOM      1  C   UNL d   1      23.764   7.703  -6.551 -0.31 +0.02    +0.064    22.592
ATOM      2  C   UNL d   1      26.176   9.755  -2.755 -0.43 +0.01    +0.064    22.592
ATOM      3  C   UNL d   1      23.931   6.726   0.219 -0.31 +0.00    +0.064    22.592
ATOM      4  C   UNL d   1      21.508   4.797  -3.426 -0.44 +0.01    +0.064    22.592
ATOM      5  C   UNL d   1      24.589   8.617  -5.749 -0.33 +0.02    +0.066    22.592
ATOM      6  C   UNL d   1      25.296   9.695  -6.256 -0.33 -0.01    -0.021    22.592
ATOM      7  C   UNL d   1      25.969  10.262  -5.202 -0.33 -0.01    -0.025    22.592
ATOM      8  C   UNL d   1      25.645   9.508  -4.090 -0.40 +0.01    +0.066    22.592
ATOM      9  C   UNL d   1      26.853  11.470  -5.265 -0.25 +0.01    +0.051    22.592
ATOM     10  C   UNL d   1      25.836   9.079  -1.657 -0.40 +0.01    +0.066    22.592
ATOM     11  C   UNL d   1      26.447   9.263  -0.414 -0.45 -0.00    -0.021    22.592
ATOM     12  C   UNL d   1      25.829   8.389   0.458 -0.39 +0.00    +0.000    22.592
ATOM     13  C   UNL d   1      24.869   7.704  -0.308 -0.34 +0.00    +0.070    22.592
ATOM     14  C   UNL d   1      27.610  10.178  -0.088 -0.51 -0.00    +0.052    22.592
ATOM     15  C   UNL d   1      23.041   6.026  -0.523 -0.33 +0.00    +0.066    22.592
ATOM     16  C   UNL d   1      22.094   5.174   0.032 -0.41 -0.00    -0.021    22.592
ATOM     17  C   UNL d   1      21.396   4.614  -1.018 -0.42 +0.00    +0.000    22.592
ATOM     18  C   UNL d   1      21.937   5.135  -2.191 -0.35 +0.01    +0.070    22.592
ATOM     19  C   UNL d   1      21.869   4.877   1.490 -0.59 +0.00    +0.052    22.592
ATOM     20  C   UNL d   1      22.011   5.371  -4.680 -0.36 +0.01    +0.066    22.592
ATOM     21  C   UNL d   1      21.721   4.890  -5.965 -0.37 -0.00    -0.025    22.592
ATOM     22  C   UNL d   1      22.364   5.741  -6.840 -0.27 -0.01    -0.021    22.592
ATOM     23  C   UNL d   1      23.023   6.698  -6.059 -0.02 +0.02    +0.066    22.592
ATOM     24  C   UNL d   1      20.888   3.692  -6.358 -0.46 +0.01    +0.051    22.592
ATOM     25  N   UNL d   1      24.798   8.514  -4.425 -0.25 -0.04    -0.248    22.592
ATOM     26  N   UNL d   1      24.879   8.118  -1.599 -0.24 -0.02    -0.248    22.592
ATOM     27  N   UNL d   1      22.919   6.037  -1.887 -0.21 -0.01    -0.248    22.592
ATOM     28  N   UNL d   1      22.841   6.440  -4.741 -0.18 -0.04    -0.248    22.592
ATOM     29 FE   UNL d   1      23.859   7.278  -3.170 -0.08 +0.00    +0.000    22.592
ATOM     30  C   UNL d   1      25.317  10.177  -7.666 -0.29 +0.03    +0.052    22.592
ATOM     31  C   UNL d   1      23.955   9.984  -8.323 -0.14 +0.06    +0.115    22.592
ATOM     32  C   UNL d   1      24.101   9.876  -9.816 -0.17 +0.11    +0.139    22.592
ATOM     33  O   UNL d   1      23.523  10.659 -10.557 -0.00 -0.35    -0.650    22.592
ATOM     34  O   UNL d   1      24.871   8.914 -10.350 +0.18 -1.42    -0.776    22.592
ATOM     35  H   UNL d   1      24.726   7.995 -10.086 +0.04 +0.35    +0.167    22.592
ATOM     36  C   UNL d   1      22.383   5.609  -8.340 -0.28 +0.02    +0.052    22.592
ATOM     37  C   UNL d   1      23.635   4.862  -8.775 -0.31 +0.05    +0.115    22.592
ATOM     38  C   UNL d   1      24.595   5.782  -9.476 -0.18 +0.15    +0.139    22.592
ATOM     39  O   UNL d   1      24.533   5.946 -10.685 -0.01 -0.89    -0.650    22.592
ATOM     40  O   UNL d   1      25.538   6.432  -8.771 -0.50 -1.19    -0.776    22.592
ATOM     41  H   UNL d   1      26.128   5.925  -8.196 -0.48 +0.12    +0.167    22.592
ATOM     42  C   UNL d   1      26.173   8.237   1.905 -0.52 +0.00    +0.004    22.592
ATOM     43  C   UNL d   1      25.302   8.586   2.861 -0.55 -0.00    +0.012    22.592
ATOM     44  C   UNL d   1      20.271   3.658  -0.906 -0.21 +0.00    +0.004    22.592
ATOM     45  C   UNL d   1      20.496   2.342  -0.829 -0.60 +0.00    +0.012    22.592
TER
ENDMDL
MODEL       99
USER    Run = 99
USER    Cluster Rank = 3
USER    Number of conformations in this cluster = 18
USER  
USER    RMSD from reference structure       = 39.060 A
USER  
USER    Estimated Free Energy of Binding    =  -13.76 kcal/mol  [=(1)+(2)+(3)-(4)]
USER    Estimated Inhibition Constant, Ki   =   81.96 pM (picomolar)  [Temperature = 298.15 K]
USER    
USER    (1) Final Intermolecular Energy     =  -16.74 kcal/mol
USER        vdW + Hbond + desolv Energy     =  -14.43 kcal/mol
USER        Electrostatic Energy            =   -2.31 kcal/mol
USER    (2) Final Total Internal Energy     =   -0.88 kcal/mol
USER    (3) Torsional Free Energy           =   +2.98 kcal/mol
USER    (4) Unbound System's Energy  [=(2)] =   -0.88 kcal/mol
USER    
USER    
USER  
USER    DPF = D:/Protein_go_brrr/autodock/final/1A3N/heme_Fe/dock.dpf
USER    NEWDPF move	heme_Fe_opt.pdbqt
USER    NEWDPF about	-0.174000 -0.001000 -0.047000
USER    NEWDPF tran0	23.478674 -6.558723 32.492202
USER    NEWDPF axisangle0	0.068378 -0.987554 -0.141642 85.902399
USER    NEWDPF quaternion0	0.046591 -0.672894 -0.096511 0.731934
USER    NEWDPF dihe0	-158.30 145.25 -98.40 -123.53 14.92 -29.56 22.16 73.84 -139.62 171.33 
USER  
USER                              x       y       z    vdW   Elec        q     RMS 
ATOM      1  C   UNL d   1      23.860  -6.667  34.506 -0.28 +0.02    +0.064    39.060
ATOM      2  C   UNL d   1      24.626  -9.667  30.653 -0.40 +0.00    +0.064    39.060
ATOM      3  C   UNL d   1      23.787  -5.974  27.699 -0.44 +0.00    +0.064    39.060
ATOM      4  C   UNL d   1      22.939  -3.078  31.411 -0.50 +0.01    +0.064    39.060
ATOM      5  C   UNL d   1      24.071  -7.873  33.694 -0.31 +0.01    +0.066    39.060
ATOM      6  C   UNL d   1      24.234  -9.151  34.204 -0.29 -0.01    -0.021    39.060
ATOM      7  C   UNL d   1      24.450  -9.983  33.134 -0.31 -0.00    -0.025    39.060
ATOM      8  C   UNL d   1      24.411  -9.180  32.010 -0.34 +0.01    +0.066    39.060
ATOM      9  C   UNL d   1      24.662 -11.464  33.196 -0.05 +0.01    +0.051    39.060
ATOM     10  C   UNL d   1      24.536  -8.925  29.548 -0.39 +0.00    +0.066    39.060
ATOM     11  C   UNL d   1      24.859  -9.393  28.272 -0.48 -0.00    -0.021    39.060
ATOM     12  C   UNL d   1      24.642  -8.342  27.404 -0.43 +0.00    +0.000    39.060
ATOM     13  C   UNL d   1      24.201  -7.273  28.204 -0.38 +0.00    +0.070    39.060
ATOM     14  C   UNL d   1      25.414 -10.754  27.906 -0.58 -0.00    +0.052    39.060
ATOM     15  C   UNL d   1      23.411  -4.926  28.469 -0.38 +0.00    +0.066    39.060
ATOM     16  C   UNL d   1      22.927  -3.734  27.945 -0.45 -0.00    -0.021    39.060
ATOM     17  C   UNL d   1      22.685  -2.896  29.014 -0.48 +0.00    +0.000    39.060
ATOM     18  C   UNL d   1      23.032  -3.596  30.167 -0.40 +0.01    +0.070    39.060
ATOM     19  C   UNL d   1      22.724  -3.384  26.496 -0.51 +0.00    +0.052    39.060
ATOM     20  C   UNL d   1      23.235  -3.806  32.651 -0.37 +0.01    +0.066    39.060
ATOM     21  C   UNL d   1      23.337  -3.229  33.925 -0.40 -0.00    -0.025    39.060
ATOM     22  C   UNL d   1      23.587  -4.271  34.793 -0.28 -0.00    -0.021    39.060
ATOM     23  C   UNL d   1      23.635  -5.436  34.018 -0.09 +0.01    +0.066    39.060
ATOM     24  C   UNL d   1      23.210  -1.774  34.314 -0.47 +0.00    +0.051    39.060
ATOM     25  N   UNL d   1      24.170  -7.899  32.353 -0.22 -0.03    -0.248    39.060
ATOM     26  N   UNL d   1      24.144  -7.626  29.512 -0.23 -0.00    -0.248    39.060
ATOM     27  N   UNL d   1      23.436  -4.860  29.837 -0.25 -0.02    -0.248    39.060
ATOM     28  N   UNL d   1      23.464  -5.140  32.707 -0.18 -0.04    -0.248    39.060
ATOM     29 FE   UNL d   1      23.804  -6.381  31.110 -0.09 +0.00    +0.000    39.060
ATOM     30  C   UNL d   1      24.167  -9.566  35.634 -0.23 +0.02    +0.052    39.060
ATOM     31  C   UNL d   1      25.057  -8.678  36.497 -0.08 +0.10    +0.115    39.060
ATOM     32  C   UNL d   1      25.420  -9.381  37.775 -0.09 +0.14    +0.139    39.060
ATOM     33  O   UNL d   1      25.248 -10.586  37.895 -0.03 -0.38    -0.650    39.060
ATOM     34  O   UNL d   1      25.940  -8.688  38.802 -0.42 -1.20    -0.776    39.060
ATOM     35  H   UNL d   1      25.791  -7.733  38.848 +0.01 +0.25    +0.167    39.060
ATOM     36  C   UNL d   1      23.816  -4.145  36.276 -0.24 +0.01    +0.052    39.060
ATOM     37  C   UNL d   1      25.304  -3.992  36.555 -0.24 +0.04    +0.115    39.060
ATOM     38  C   UNL d   1      25.872  -5.249  37.150 -0.21 +0.10    +0.139    39.060
ATOM     39  O   UNL d   1      25.178  -5.987  37.834 -0.02 -0.47    -0.650    39.060
ATOM     40  O   UNL d   1      27.160  -5.571  36.935 -0.16 -1.06    -0.776    39.060
ATOM     41  H   UNL d   1      27.562  -5.356  36.081 -0.34 +0.15    +0.167    39.060
ATOM     42  C   UNL d   1      24.870  -8.390  25.927 -0.52 +0.00    +0.004    39.060
ATOM     43  C   UNL d   1      26.028  -8.835  25.422 -0.58 +0.00    +0.012    39.060
ATOM     44  C   UNL d   1      22.139  -1.522  28.938 -0.62 +0.00    +0.004    39.060
ATOM     45  C   UNL d   1      22.865  -0.524  28.425 -0.68 +0.00    +0.012    39.060
TER
ENDMDL
MODEL       34
USER    Run = 34
USER    Cluster Rank = 4
USER    Number of conformations in this cluster = 23
USER  
USER    RMSD from reference structure       = 6.970 A
USER  
USER    Estimated Free Energy of Binding    =  -13.48 kcal/mol  [=(1)+(2)+(3)-(4)]
USER    Estimated Inhibition Constant, Ki   =  131.56 pM (picomolar)  [Temperature = 298.15 K]
USER    
USER    (1) Final Intermolecular Energy     =  -16.46 kcal/mol
USER        vdW + Hbond + desolv Energy     =  -14.38 kcal/mol
USER        Electrostatic Energy            =   -2.08 kcal/mol
USER    (2) Final Total Internal Energy     =   -1.40 kcal/mol
USER    (3) Torsional Free Energy           =   +2.98 kcal/mol
USER    (4) Unbound System's Energy  [=(2)] =   -1.40 kcal/mol
USER    
USER    
USER  
USER    DPF = D:/Protein_go_brrr/autodock/final/1A3N/heme_Fe/dock.dpf
USER    NEWDPF move	heme_Fe_opt.pdbqt
USER    NEWDPF about	-0.174000 -0.001000 -0.047000
USER    NEWDPF tran0	2.854666 -6.668725 -4.346696
USER    NEWDPF axisangle0	-0.353278 -0.928611 -0.113475 -101.006158
USER    NEWDPF quaternion0	-0.272610 -0.716571 -0.087564 -0.636037
USER    NEWDPF dihe0	-50.70 156.06 90.39 -138.13 37.82 -24.80 -61.28 -72.94 -175.39 121.49 
USER  
USER                              x       y       z    vdW   Elec        q     RMS 
ATOM      1  C   UNL d   1       2.449  -7.020  -6.327 -0.33 +0.02    +0.064     6.970
ATOM      2  C   UNL d   1       0.793  -8.872  -2.054 -0.39 +0.00    +0.064     6.970
ATOM      3  C   UNL d   1       2.770  -5.148   0.246 -0.41 +0.00    +0.064     6.970
ATOM      4  C   UNL d   1       4.472  -3.394  -3.866 -0.50 +0.01    +0.064     6.970
ATOM      5  C   UNL d   1       1.871  -7.930  -5.329 -0.32 +0.01    +0.066     6.970
ATOM      6  C   UNL d   1       1.310  -9.164  -5.615 -0.31 -0.00    -0.021     6.970
ATOM      7  C   UNL d   1       0.847  -9.676  -4.428 -0.33 -0.00    -0.025     6.970
ATOM      8  C   UNL d   1       1.144  -8.734  -3.462 -0.29 +0.01    +0.066     6.970
ATOM      9  C   UNL d   1       0.178 -11.003  -4.240 -0.17 +0.00    +0.051     6.970
ATOM     10  C   UNL d   1       1.118  -8.005  -1.093 -0.38 +0.00    +0.066     6.970
ATOM     11  C   UNL d   1       0.669  -8.106   0.226 -0.43 -0.00    -0.021     6.970
ATOM     12  C   UNL d   1       1.212  -7.035   0.906 -0.34 +0.00    +0.000     6.970
ATOM     13  C   UNL d   1       1.964  -6.323  -0.045 -0.37 +0.00    +0.070     6.970
ATOM     14  C   UNL d   1      -0.286  -9.136   0.795 -0.59 -0.00    +0.052     6.970
ATOM     15  C   UNL d   1       3.454  -4.429  -0.675 -0.37 +0.00    +0.066     6.970
ATOM     16  C   UNL d   1       4.292  -3.372  -0.344 -0.47 -0.00    -0.021     6.970
ATOM     17  C   UNL d   1       4.782  -2.863  -1.528 -0.48 +0.00    +0.000     6.970
ATOM     18  C   UNL d   1       4.226  -3.620  -2.557 -0.39 +0.01    +0.070     6.970
ATOM     19  C   UNL d   1       4.603  -2.843   1.031 -0.48 +0.00    +0.052     6.970
ATOM     20  C   UNL d   1       3.955  -4.207  -4.973 -0.41 +0.01    +0.066     6.970
ATOM     21  C   UNL d   1       4.035  -3.871  -6.332 -0.43 -0.00    -0.025     6.970
ATOM     22  C   UNL d   1       3.464  -4.924  -7.016 -0.34 -0.00    -0.021     6.970
ATOM     23  C   UNL d   1       3.054  -5.854  -6.052 -0.29 +0.01    +0.066     6.970
ATOM     24  C   UNL d   1       4.613  -2.626  -6.963 -0.38 +0.00    +0.051     6.970
ATOM     25  N   UNL d   1       1.776  -7.677  -4.012 -0.20 -0.02    -0.248     6.970
ATOM     26  N   UNL d   1       1.900  -6.909  -1.265 -0.24 -0.00    -0.248     6.970
ATOM     27  N   UNL d   1       3.445  -4.610  -2.032 -0.23 -0.01    -0.248     6.970
ATOM     28  N   UNL d   1       3.316  -5.390  -4.806 -0.24 -0.04    -0.248     6.970
ATOM     29 FE   UNL d   1       2.609  -6.148  -3.036 -0.09 -0.00    +0.000     6.970
ATOM     30  C   UNL d   1       1.236  -9.835  -6.944 -0.24 +0.01    +0.052     6.970
ATOM     31  C   UNL d   1       0.000  -9.377  -7.711 -0.18 +0.05    +0.115     6.970
ATOM     32  C   UNL d   1       0.398  -8.702  -8.994 -0.15 +0.08    +0.139     6.970
ATOM     33  O   UNL d   1       1.345  -9.115  -9.649 +0.02 -0.22    -0.650     6.970
ATOM     34  O   UNL d   1      -0.287  -7.632  -9.434 -0.27 -1.02    -0.776     6.970
ATOM     35  H   UNL d   1       0.199  -6.833  -9.682 +0.03 +0.23    +0.167     6.970
ATOM     36  C   UNL d   1       3.280  -5.008  -8.508 -0.28 +0.01    +0.052     6.970
ATOM     37  C   UNL d   1       1.941  -5.658  -8.824 -0.23 +0.06    +0.115     6.970
ATOM     38  C   UNL d   1       0.950  -4.640  -9.315 -0.27 +0.11    +0.139     6.970
ATOM     39  O   UNL d   1       1.062  -3.462  -9.011 -0.07 -0.34    -0.650     6.970
ATOM     40  O   UNL d   1      -0.076  -5.024 -10.095 -0.18 -1.28    -0.776     6.970
ATOM     41  H   UNL d   1       0.008  -5.835 -10.616 +0.04 +0.24    +0.167     6.970
ATOM     42  C   UNL d   1       0.987  -6.738   2.354 -0.51 +0.00    +0.004     6.970
ATOM     43  C   UNL d   1       1.994  -6.332   3.139 -0.54 +0.00    +0.012     6.970
ATOM     44  C   UNL d   1       5.735  -1.738  -1.666 -0.65 +0.00    +0.004     6.970
ATOM     45  C   UNL d   1       5.305  -0.472  -1.662 -0.68 +0.00    +0.012     6.970
TER
ENDMDL
MODEL       47
USER    Run = 47
USER    Cluster Rank = 5
USER    Number of conformations in this cluster = 2
USER  
USER    RMSD from reference structure       = 21.120 A
USER  
USER    Estimated Free Energy of Binding    =  -13.48 kcal/mol  [=(1)+(2)+(3)-(4)]
USER    Estimated Inhibition Constant, Ki   =  132.05 pM (picomolar)  [Temperature = 298.15 K]
USER    
USER    (1) Final Intermolecular Energy     =  -16.46 kcal/mol
USER        vdW + Hbond + desolv Energy     =  -14.72 kcal/mol
USER        Electrostatic Energy            =   -1.74 kcal/mol
USER    (2) Final Total Internal Energy     =   -0.26 kcal/mol
USER    (3) Torsional Free Energy           =   +2.98 kcal/mol
USER    (4) Unbound System's Energy  [=(2)] =   -0.26 kcal/mol
USER    
USER    
USER  
USER    DPF = D:/Protein_go_brrr/autodock/final/1A3N/heme_Fe/dock.dpf
USER    NEWDPF move	heme_Fe_opt.pdbqt
USER    NEWDPF about	-0.174000 -0.001000 -0.047000
USER    NEWDPF tran0	22.820955 5.926000 -4.152235
USER    NEWDPF axisangle0	-0.580355 -0.814184 -0.017086 -86.785189
USER    NEWDPF quaternion0	-0.398700 -0.559340 -0.011738 -0.726663
USER    NEWDPF dihe0	-116.18 126.78 1.90 122.48 -173.65 -69.20 -39.27 117.60 177.67 -5.65 
USER  
USER                              x       y       z    vdW   Elec        q     RMS 
ATOM      1  C   UNL d   1      21.625   5.351  -5.718 -0.36 +0.01    +0.064    21.120
ATOM      2  C   UNL d   1      21.607   4.536  -0.843 -0.37 +0.00    +0.064    21.120
ATOM      3  C   UNL d   1      24.740   8.136  -0.299 -0.40 +0.00    +0.064    21.120
ATOM      4  C   UNL d   1      24.852   8.873  -5.024 -0.41 +0.01    +0.064    21.120
ATOM      5  C   UNL d   1      21.394   4.733  -4.405 -0.39 +0.01    +0.066    21.120
ATOM      6  C   UNL d   1      20.631   3.598  -4.189 -0.38 -0.00    -0.021    21.120
ATOM      7  C   UNL d   1      20.623   3.374  -2.834 -0.39 -0.00    -0.025    21.120
ATOM      8  C   UNL d   1      21.383   4.383  -2.275 -0.37 +0.01    +0.066    21.120
ATOM      9  C   UNL d   1      19.939   2.243  -2.130 -0.43 +0.01    +0.051    21.120
ATOM     10  C   UNL d   1      22.382   5.466  -0.282 -0.36 +0.00    +0.066    21.120
ATOM     11  C   UNL d   1      22.486   5.658   1.098 -0.40 -0.00    -0.021    21.120
ATOM     12  C   UNL d   1      23.371   6.702   1.281 -0.34 +0.00    +0.000    21.120
ATOM     13  C   UNL d   1      23.758   7.102  -0.010 -0.35 +0.00    +0.070    21.120
ATOM     14  C   UNL d   1      21.727   4.928   2.188 -0.53 +0.00    +0.052    21.120
ATOM     15  C   UNL d   1      25.077   8.560  -1.540 -0.37 +0.00    +0.066    21.120
ATOM     16  C   UNL d   1      26.091   9.479  -1.777 -0.46 -0.00    -0.021    21.120
ATOM     17  C   UNL d   1      26.123   9.696  -3.139 -0.48 +0.00    +0.000    21.120
ATOM     18  C   UNL d   1      25.123   8.905  -3.701 -0.39 +0.01    +0.070    21.120
ATOM     19  C   UNL d   1      26.979  10.149  -0.764 -0.47 +0.00    +0.052    21.120
ATOM     20  C   UNL d   1      23.850   8.008  -5.658 -0.30 +0.02    +0.066    21.120
ATOM     21  C   UNL d   1      23.421   8.106  -6.989 -0.30 -0.01    -0.025    21.120
ATOM     22  C   UNL d   1      22.511   7.085  -7.169 -0.26 -0.01    -0.021    21.120
ATOM     23  C   UNL d   1      22.416   6.412  -5.945 -0.21 +0.01    +0.066    21.120
ATOM     24  C   UNL d   1      23.836   9.107  -8.043 -0.26 +0.03    +0.051    21.120
ATOM     25  N   UNL d   1      21.858   5.203  -3.234 -0.25 -0.02    -0.248    21.120
ATOM     26  N   UNL d   1      23.149   6.355  -0.963 -0.21 -0.01    -0.248    21.120
ATOM     27  N   UNL d   1      24.509   8.174  -2.724 -0.24 -0.02    -0.248    21.120
ATOM     28  N   UNL d   1      23.202   7.007  -5.015 -0.20 -0.04    -0.248    21.120
ATOM     29 FE   UNL d   1      23.176   6.682  -2.990 -0.08 +0.00    +0.000    21.120
ATOM     30  C   UNL d   1      19.960   2.753  -5.217 -0.53 +0.01    +0.052    21.120
ATOM     31  C   UNL d   1      18.519   3.206  -5.432 -0.51 +0.03    +0.115    21.120
ATOM     32  C   UNL d   1      18.159   3.138  -6.890 -0.42 +0.03    +0.139    21.120
ATOM     33  O   UNL d   1      17.084   3.568  -7.287 -0.05 -0.31    -0.650    21.120
ATOM     34  O   UNL d   1      19.018   2.604  -7.774 +0.08 -0.06    -0.776    21.120
ATOM     35  H   UNL d   1      19.247   1.667  -7.698 -0.40 -0.04    +0.167    21.120
ATOM     36  C   UNL d   1      21.741   6.805  -8.432 -0.23 +0.02    +0.052    21.120
ATOM     37  C   UNL d   1      22.514   5.821  -9.297 -0.19 +0.05    +0.115    21.120
ATOM     38  C   UNL d   1      23.827   6.405  -9.735 -0.18 +0.13    +0.139    21.120
ATOM     39  O   UNL d   1      23.866   7.329 -10.535 -0.02 -0.78    -0.650    21.120
ATOM     40  O   UNL d   1      24.978   5.909  -9.248 -0.38 -0.96    -0.776    21.120
ATOM     41  H   UNL d   1      25.095   5.846  -8.289 -0.15 +0.11    +0.167    21.120
ATOM     42  C   UNL d   1      23.775   7.259   2.609 -0.52 +0.00    +0.004    21.120
ATOM     43  C   UNL d   1      24.187   6.454   3.597 -0.64 -0.00    +0.012    21.120
ATOM     44  C   UNL d   1      27.062  10.586  -3.858 -0.17 +0.00    +0.004    21.120
ATOM     45  C   UNL d   1      27.048  10.662  -5.193 -0.48 +0.00    +0.012    21.120
TER
ENDMDL
MODEL       49
USER    Run = 49
USER    Cluster Rank = 6
USER    Number of conformations in this cluster = 1
USER  
USER    RMSD from reference structure       = 33.130 A
USER  
USER    Estimated Free Energy of Binding    =  -13.03 kcal/mol  [=(1)+(2)+(3)-(4)]
USER    Estimated Inhibition Constant, Ki   =  281.77 pM (picomolar)  [Temperature = 298.15 K]
USER    
USER    (1) Final Intermolecular Energy     =  -16.01 kcal/mol
USER        vdW + Hbond + desolv Energy     =  -13.02 kcal/mol
USER        Electrostatic Energy            =   -2.99 kcal/mol
USER    (2) Final Total Internal Energy     =   -0.54 kcal/mol
USER    (3) Torsional Free Energy           =   +2.98 kcal/mol
USER    (4) Unbound System's Energy  [=(2)] =   -0.54 kcal/mol
USER    
USER    
USER  
USER    DPF = D:/Protein_go_brrr/autodock/final/1A3N/heme_Fe/dock.dpf
USER    NEWDPF move	heme_Fe_opt.pdbqt
USER    NEWDPF about	-0.174000 -0.001000 -0.047000
USER    NEWDPF tran0	9.040418 12.024678 30.738058
USER    NEWDPF axisangle0	0.570774 0.175300 -0.802176 -176.218387
USER    NEWDPF quaternion0	0.570464 0.175204 -0.801739 -0.032995
USER    NEWDPF dihe0	112.38 153.14 46.29 -161.23 -109.12 175.60 49.50 94.02 -12.74 12.78 
USER  
USER                              x       y       z    vdW   Elec        q     RMS 
ATOM      1  C   UNL d   1       9.232  11.619  32.740 -0.26 +0.03    +0.064    33.130
ATOM      2  C   UNL d   1       7.300  15.331  30.111 -0.32 +0.02    +0.064    33.130
ATOM      3  C   UNL d   1       7.431  12.541  26.204 -0.40 +0.00    +0.064    33.130
ATOM      4  C   UNL d   1       9.399   8.971  28.708 -0.45 +0.01    +0.064    33.130
ATOM      5  C   UNL d   1       8.754  12.951  32.345 -0.24 +0.03    +0.066    33.130
ATOM      6  C   UNL d   1       8.688  14.050  33.187 -0.21 -0.01    -0.021    33.130
ATOM      7  C   UNL d   1       8.147  15.079  32.457 -0.23 -0.01    -0.025    33.130
ATOM      8  C   UNL d   1       7.905  14.569  31.196 -0.28 +0.03    +0.066    33.130
ATOM      9  C   UNL d   1       7.901  16.473  32.945 -0.22 +0.03    +0.051    33.130
ATOM     10  C   UNL d   1       7.108  14.881  28.870 -0.37 +0.01    +0.066    33.130
ATOM     11  C   UNL d   1       6.422  15.595  27.884 -0.47 -0.00    -0.021    33.130
ATOM     12  C   UNL d   1       6.431  14.805  26.752 -0.45 +0.00    +0.000    33.130
ATOM     13  C   UNL d   1       7.122  13.634  27.112 -0.34 +0.01    +0.070    33.130
ATOM     14  C   UNL d   1       5.732  16.936  28.032 -0.36 +0.00    +0.052    33.130
ATOM     15  C   UNL d   1       8.049  11.390  26.559 -0.30 +0.00    +0.066    33.130
ATOM     16  C   UNL d   1       8.415  10.412  25.642 -0.39 -0.00    -0.021    33.130
ATOM     17  C   UNL d   1       8.980   9.380  26.363 -0.43 +0.00    +0.000    33.130
ATOM     18  C   UNL d   1       8.941   9.751  27.705 -0.38 +0.01    +0.070    33.130
ATOM     19  C   UNL d   1       8.220  10.433  24.150 -0.40 +0.00    +0.052    33.130
ATOM     20  C   UNL d   1       9.431   9.354  30.125 -0.40 +0.02    +0.066    33.130
ATOM     21  C   UNL d   1       9.713   8.488  31.191 -0.45 -0.01    -0.025    33.130
ATOM     22  C   UNL d   1       9.672   9.267  32.330 -0.39 -0.01    -0.021    33.130
ATOM     23  C   UNL d   1       9.363  10.568  31.916 -0.28 +0.03    +0.066    33.130
ATOM     24  C   UNL d   1      10.002   7.006  31.152 +0.17 +0.01    +0.051    33.130
ATOM     25  N   UNL d   1       8.284  13.277  31.129 -0.18 -0.09    -0.248    33.130
ATOM     26  N   UNL d   1       7.526  13.676  28.405 -0.22 -0.04    -0.248    33.130
ATOM     27  N   UNL d   1       8.409  11.005  27.822 -0.23 -0.03    -0.248    33.130
ATOM     28  N   UNL d   1       9.172  10.606  30.575 -0.23 -0.07    -0.248    33.130
ATOM     29 FE   UNL d   1       8.350  12.139  29.489 -0.08 +0.00    +0.000    33.130
ATOM     30  C   UNL d   1       9.134  14.126  34.606 -0.16 +0.04    +0.052    33.130
ATOM     31  C   UNL d   1      10.653  14.230  34.690 -0.22 +0.09    +0.115    33.130
ATOM     32  C   UNL d   1      11.197  13.224  35.666 -0.09 +0.19    +0.139    33.130
ATOM     33  O   UNL d   1      11.657  13.584  36.741 -0.05 -0.74    -0.650    33.130
ATOM     34  O   UNL d   1      11.181  11.915  35.364 -0.30 -1.63    -0.776    33.130
ATOM     35  H   UNL d   1      10.331  11.458  35.301 +0.05 +0.20    +0.167    33.130
ATOM     36  C   UNL d   1       9.872   8.775  33.739 -0.38 +0.03    +0.052    33.130
ATOM     37  C   UNL d   1      11.198   9.289  34.279 -0.01 +0.12    +0.115    33.130
ATOM     38  C   UNL d   1      12.324   8.364  33.913 -0.23 +0.14    +0.139    33.130
ATOM     39  O   UNL d   1      13.481   8.647  34.187 -0.42 -0.99    -0.650    33.130
ATOM     40  O   UNL d   1      12.063   7.210  33.272 +0.12 -0.41    -0.776    33.130
ATOM     41  H   UNL d   1      11.200   6.791  33.392 -0.45 +0.00    +0.167    33.130
ATOM     42  C   UNL d   1       5.798  15.170  25.447 -0.52 +0.00    +0.004    33.130
ATOM     43  C   UNL d   1       6.509  15.759  24.477 -0.53 +0.00    +0.012    33.130
ATOM     44  C   UNL d   1       9.539   8.129  25.801 -0.50 +0.00    +0.004    33.130
ATOM     45  C   UNL d   1       8.895   6.966  25.945 -0.58 +0.00    +0.012    33.130
TER
ENDMDL
MODEL       80
USER    Run = 80
USER    Cluster Rank = 7
USER    Number of conformations in this cluster = 1
USER  
USER    RMSD from reference structure       = 37.416 A
USER  
USER    Estimated Free Energy of Binding    =  -12.21 kcal/mol  [=(1)+(2)+(3)-(4)]
USER    Estimated Inhibition Constant, Ki   =    1.12 nM (nanomolar)  [Temperature = 298.15 K]
USER    
USER    (1) Final Intermolecular Energy     =  -15.20 kcal/mol
USER        vdW + Hbond + desolv Energy     =  -15.20 kcal/mol
USER        Electrostatic Energy            =   +0.01 kcal/mol
USER    (2) Final Total Internal Energy     =   -0.62 kcal/mol
USER    (3) Torsional Free Energy           =   +2.98 kcal/mol
USER    (4) Unbound System's Energy  [=(2)] =   -0.62 kcal/mol
USER    
USER    
USER  
USER    DPF = D:/Protein_go_brrr/autodock/final/1A3N/heme_Fe/dock.dpf
USER    NEWDPF move	heme_Fe_opt.pdbqt
USER    NEWDPF about	-0.174000 -0.001000 -0.047000
USER    NEWDPF tran0	23.386992 -5.647886 30.900686
USER    NEWDPF axisangle0	-0.636936 0.561224 -0.528526 -97.849478
USER    NEWDPF quaternion0	-0.480153 0.423077 -0.398428 -0.657050
USER    NEWDPF dihe0	89.64 -63.47 -111.64 -127.79 102.64 -78.43 65.96 39.80 -165.57 -33.18 
USER  
USER                              x       y       z    vdW   Elec        q     RMS 
ATOM      1  C   UNL d   1      23.237  -3.663  31.397 -0.46 +0.01    +0.064    37.416
ATOM      2  C   UNL d   1      23.850  -7.852  33.948 -0.30 +0.01    +0.064    37.416
ATOM      3  C   UNL d   1      24.967 -10.100  29.854 -0.50 +0.00    +0.064    37.416
ATOM      4  C   UNL d   1      24.276  -6.082  27.352 -0.43 +0.00    +0.064    37.416
ATOM      5  C   UNL d   1      23.224  -4.652  32.484 -0.35 +0.01    +0.066    37.416
ATOM      6  C   UNL d   1      22.839  -4.390  33.788 -0.38 -0.00    -0.021    37.416
ATOM      7  C   UNL d   1      23.014  -5.553  34.497 -0.24 -0.00    -0.025    37.416
ATOM      8  C   UNL d   1      23.498  -6.482  33.596 -0.28 +0.01    +0.066    37.416
ATOM      9  C   UNL d   1      22.711  -5.755  35.950 -0.18 +0.01    +0.051    37.416
ATOM     10  C   UNL d   1      24.264  -8.783  33.088 -0.32 +0.01    +0.066    37.416
ATOM     11  C   UNL d   1      24.703 -10.053  33.473 -0.29 -0.00    -0.021    37.416
ATOM     12  C   UNL d   1      25.047 -10.715  32.311 -0.36 +0.00    +0.000    37.416
ATOM     13  C   UNL d   1      24.806  -9.804  31.269 -0.38 +0.01    +0.070    37.416
ATOM     14  C   UNL d   1      24.852 -10.585  34.883 -0.24 +0.02    +0.052    37.416
ATOM     15  C   UNL d   1      24.786  -9.210  28.850 -0.42 +0.00    +0.066    37.416
ATOM     16  C   UNL d   1      24.852  -9.558  27.506 -0.49 -0.00    -0.021    37.416
ATOM     17  C   UNL d   1      24.657  -8.400  26.783 -0.44 +0.00    +0.000    37.416
ATOM     18  C   UNL d   1      24.480  -7.370  27.704 -0.34 +0.00    +0.070    37.416
ATOM     19  C   UNL d   1      25.114 -10.921  26.923 -0.65 -0.00    +0.052    37.416
ATOM     20  C   UNL d   1      24.025  -4.982  28.291 -0.37 +0.00    +0.066    37.416
ATOM     21  C   UNL d   1      24.012  -3.620  27.958 -0.43 -0.00    -0.025    37.416
ATOM     22  C   UNL d   1      23.701  -2.950  29.123 -0.43 -0.00    -0.021    37.416
ATOM     23  C   UNL d   1      23.544  -3.923  30.117 -0.39 +0.01    +0.066    37.416
ATOM     24  C   UNL d   1      24.281  -2.973  26.619 -0.57 +0.00    +0.051    37.416
ATOM     25  N   UNL d   1      23.616  -5.933  32.370 -0.22 -0.03    -0.248    37.416
ATOM     26  N   UNL d   1      24.337  -8.623  31.742 -0.23 -0.02    -0.248    37.416
ATOM     27  N   UNL d   1      24.515  -7.874  28.974 -0.22 -0.01    -0.248    37.416
ATOM     28  N   UNL d   1      23.786  -5.158  29.613 -0.25 -0.02    -0.248    37.416
ATOM     29 FE   UNL d   1      24.062  -6.890  30.676 -0.09 +0.00    +0.000    37.416
ATOM     30  C   UNL d   1      22.312  -3.106  34.332 -0.44 +0.01    +0.052    37.416
ATOM     31  C   UNL d   1      23.440  -2.098  34.524 -0.39 +0.01    +0.115    37.416
ATOM     32  C   UNL d   1      23.634  -1.798  35.985 -0.33 +0.01    +0.139    37.416
ATOM     33  O   UNL d   1      24.561  -2.299  36.606 -0.01 -0.09    -0.650    37.416
ATOM     34  O   UNL d   1      22.787  -0.974  36.623 +0.08 +0.04    -0.776    37.416
ATOM     35  H   UNL d   1      22.984  -0.027  36.650 -0.47 -0.06    +0.167    37.416
ATOM     36  C   UNL d   1      23.610  -1.455  29.281 -0.53 +0.00    +0.052    37.416
ATOM     37  C   UNL d   1      22.476  -0.916  28.420 -0.53 +0.01    +0.115    37.416
ATOM     38  C   UNL d   1      22.856   0.391  27.785 -0.42 -0.01    +0.139    37.416
ATOM     39  O   UNL d   1      22.825   1.431  28.426 +0.05 +0.06    -0.650    37.416
ATOM     40  O   UNL d   1      23.233   0.425  26.494 +0.16 +0.06    -0.776    37.416
ATOM     41  H   UNL d   1      22.693   0.916  25.859 -0.36 -0.05    +0.167    37.416
ATOM     42  C   UNL d   1      25.581 -12.111  32.248 -0.33 +0.00    +0.004    37.416
ATOM     43  C   UNL d   1      26.760 -12.423  32.801 -0.35 +0.00    +0.012    37.416
ATOM     44  C   UNL d   1      24.621  -8.290  25.307 -0.52 +0.00    +0.004    37.416
ATOM     45  C   UNL d   1      25.744  -8.375  24.587 -0.56 +0.00    +0.012    37.416
TER
ENDMDL
MODEL       52
USER    Run = 52
USER    Cluster Rank = 8
USER    Number of conformations in this cluster = 2
USER  
USER    RMSD from reference structure       = 7.027 A
USER  
USER    Estimated Free Energy of Binding    =  -12.12 kcal/mol  [=(1)+(2)+(3)-(4)]
USER    Estimated Inhibition Constant, Ki   =    1.30 nM (nanomolar)  [Temperature = 298.15 K]
USER    
USER    (1) Final Intermolecular Energy     =  -15.10 kcal/mol
USER        vdW + Hbond + desolv Energy     =  -14.97 kcal/mol
USER        Electrostatic Energy            =   -0.13 kcal/mol
USER    (2) Final Total Internal Energy     =   -0.71 kcal/mol
USER    (3) Torsional Free Energy           =   +2.98 kcal/mol
USER    (4) Unbound System's Energy  [=(2)] =   -0.71 kcal/mol
USER    
USER    
USER  
USER    DPF = D:/Protein_go_brrr/autodock/final/1A3N/heme_Fe/dock.dpf
USER    NEWDPF move	heme_Fe_opt.pdbqt
USER    NEWDPF about	-0.174000 -0.001000 -0.047000
USER    NEWDPF tran0	2.697768 -5.257225 -3.301425
USER    NEWDPF axisangle0	0.449755 -0.519136 0.726787 157.504100
USER    NEWDPF quaternion0	0.441116 -0.509164 0.712827 0.195055
USER    NEWDPF dihe0	-169.85 141.72 -177.51 -161.26 -79.28 66.68 -51.99 115.88 19.70 12.26 
USER  
USER                              x       y       z    vdW   Elec        q     RMS 
ATOM      1  C   UNL d   1       4.207  -4.087  -4.052 -0.47 +0.01    +0.064     7.027
ATOM      2  C   UNL d   1       2.663  -5.288   0.487 -0.35 +0.00    +0.064     7.027
ATOM      3  C   UNL d   1       0.064  -8.851  -1.414 -0.49 +0.00    +0.064     7.027
ATOM      4  C   UNL d   1       1.463  -7.640  -5.826 -0.27 +0.02    +0.064     7.027
ATOM      5  C   UNL d   1       3.948  -4.042  -2.606 -0.38 +0.00    +0.066     7.027
ATOM      6  C   UNL d   1       4.440  -3.076  -1.744 -0.44 -0.00    -0.021     7.027
ATOM      7  C   UNL d   1       4.014  -3.412  -0.483 -0.44 -0.00    -0.025     7.027
ATOM      8  C   UNL d   1       3.277  -4.572  -0.624 -0.37 +0.00    +0.066     7.027
ATOM      9  C   UNL d   1       4.288  -2.647   0.775 -0.56 +0.00    +0.051     7.027
ATOM     10  C   UNL d   1       1.899  -6.376   0.372 -0.37 +0.00    +0.066     7.027
ATOM     11  C   UNL d   1       1.420  -7.105   1.463 -0.41 -0.00    -0.021     7.027
ATOM     12  C   UNL d   1       0.681  -8.148   0.941 -0.48 -0.00    +0.000     7.027
ATOM     13  C   UNL d   1       0.756  -8.004  -0.455 -0.38 +0.00    +0.070     7.027
ATOM     14  C   UNL d   1       1.709  -6.860   2.931 -0.41 +0.00    +0.052     7.027
ATOM     15  C   UNL d   1       0.174  -8.749  -2.760 -0.40 +0.01    +0.066     7.027
ATOM     16  C   UNL d   1      -0.580  -9.511  -3.643 -0.41 -0.00    -0.021     7.027
ATOM     17  C   UNL d   1      -0.176  -9.166  -4.916 -0.34 +0.00    +0.000     7.027
ATOM     18  C   UNL d   1       0.820  -8.202  -4.779 -0.34 +0.01    +0.070     7.027
ATOM     19  C   UNL d   1      -1.623 -10.543  -3.306 -0.38 -0.00    +0.052     7.027
ATOM     20  C   UNL d   1       2.472  -6.579  -5.723 -0.26 +0.02    +0.066     7.027
ATOM     21  C   UNL d   1       3.286  -6.131  -6.773 -0.20 -0.01    -0.025     7.027
ATOM     22  C   UNL d   1       4.051  -5.110  -6.249 -0.35 -0.00    -0.021     7.027
ATOM     23  C   UNL d   1       3.681  -4.980  -4.905 -0.38 +0.01    +0.066     7.027
ATOM     24  C   UNL d   1       3.351  -6.633  -8.197 -0.18 +0.01    +0.051     7.027
ATOM     25  N   UNL d   1       3.231  -4.947  -1.918 -0.23 -0.01    -0.248     7.027
ATOM     26  N   UNL d   1       1.505  -6.929  -0.802 -0.24 -0.01    -0.248     7.027
ATOM     27  N   UNL d   1       1.005  -7.913  -3.456 -0.24 -0.03    -0.248     7.027
ATOM     28  N   UNL d   1       2.750  -5.909  -4.578 -0.19 -0.05    -0.248     7.027
ATOM     29 FE   UNL d   1       2.127  -6.420  -2.692 -0.08 +0.00    +0.000     7.027
ATOM     30  C   UNL d   1       5.257  -1.881  -2.100 -0.58 +0.00    +0.052     7.027
ATOM     31  C   UNL d   1       4.439  -0.603  -1.949 -0.49 +0.00    +0.115     7.027
ATOM     32  C   UNL d   1       5.174   0.394  -1.097 -0.61 -0.01    +0.139     7.027
ATOM     33  O   UNL d   1       5.174   0.292   0.122 +0.02 +0.04    -0.650     7.027
ATOM     34  O   UNL d   1       5.841   1.410  -1.670 +0.43 +0.05    -0.776     7.027
ATOM     35  H   UNL d   1       5.720   1.576  -2.616 -0.40 -0.04    +0.167     7.027
ATOM     36  C   UNL d   1       5.112  -4.337  -6.987 -0.43 +0.00    +0.052     7.027
ATOM     37  C   UNL d   1       4.629  -2.917  -7.241 -0.42 +0.00    +0.115     7.027
ATOM     38  C   UNL d   1       3.445  -2.908  -8.165 -0.37 +0.01    +0.139     7.027
ATOM     39  O   UNL d   1       2.375  -3.385  -7.815 -0.08 -0.15    -0.650     7.027
ATOM     40  O   UNL d   1       3.556  -2.373  -9.394 +0.04 +0.01    -0.776     7.027
ATOM     41  H   UNL d   1       4.083  -1.570  -9.511 -0.44 -0.06    +0.167     7.027
ATOM     42  C   UNL d   1      -0.013  -9.195   1.753 -0.69 -0.00    +0.004     7.027
ATOM     43  C   UNL d   1       0.153 -10.497   1.486 -0.49 -0.00    +0.012     7.027
ATOM     44  C   UNL d   1      -0.721  -9.709  -6.180 -0.18 +0.00    +0.004     7.027
ATOM     45  C   UNL d   1      -0.008 -10.561  -6.924 -0.21 +0.00    +0.012     7.027
TER
ENDMDL
MODEL       19
USER    Run = 19
USER    Cluster Rank = 9
USER    Number of conformations in this cluster = 1
USER  
USER    RMSD from reference structure       = 8.458 A
USER  
USER    Estimated Free Energy of Binding    =  -10.86 kcal/mol  [=(1)+(2)+(3)-(4)]
USER    Estimated Inhibition Constant, Ki   =   11.02 nM (nanomolar)  [Temperature = 298.15 K]
USER    
USER    (1) Final Intermolecular Energy     =  -13.84 kcal/mol
USER        vdW + Hbond + desolv Energy     =  -12.16 kcal/mol
USER        Electrostatic Energy            =   -1.68 kcal/mol
USER    (2) Final Total Internal Energy     =   -0.70 kcal/mol
USER    (3) Torsional Free Energy           =   +2.98 kcal/mol
USER    (4) Unbound System's Energy  [=(2)] =   -0.70 kcal/mol
USER    
USER    
USER  
USER    DPF = D:/Protein_go_brrr/autodock/final/1A3N/heme_Fe/dock.dpf
USER    NEWDPF move	heme_Fe_opt.pdbqt
USER    NEWDPF about	-0.174000 -0.001000 -0.047000
USER    NEWDPF tran0	2.011773 -6.399838 -6.290005
USER    NEWDPF axisangle0	-0.658105 0.255854 -0.708122 162.498205
USER    NEWDPF quaternion0	-0.650444 0.252876 -0.699878 0.152139
USER    NEWDPF dihe0	-104.52 179.84 98.78 -179.42 134.21 112.62 92.22 147.84 -176.47 28.26 
USER  
USER                              x       y       z    vdW   Elec        q     RMS 
ATOM      1  C   UNL d   1       2.700  -6.415  -8.223 -0.25 +0.02    +0.064     8.458
ATOM      2  C   UNL d   1       3.948  -3.986  -4.103 -0.41 +0.01    +0.064     8.458
ATOM      3  C   UNL d   1       1.364  -7.128  -1.551 -0.36 +0.00    +0.064     8.458
ATOM      4  C   UNL d   1       0.059  -9.431  -5.535 -0.30 +0.02    +0.064     8.458
ATOM      5  C   UNL d   1       3.223  -5.390  -7.308 -0.28 +0.02    +0.066     8.458
ATOM      6  C   UNL d   1       3.924  -4.263  -7.702 -0.34 -0.00    -0.021     8.458
ATOM      7  C   UNL d   1       4.274  -3.591  -6.557 -0.44 -0.00    -0.025     8.458
ATOM      8  C   UNL d   1       3.771  -4.335  -5.507 -0.39 +0.01    +0.066     8.458
ATOM      9  C   UNL d   1       5.029  -2.299  -6.487 -0.04 +0.00    +0.051     8.458
ATOM     10  C   UNL d   1       3.425  -4.654  -3.074 -0.36 +0.01    +0.066     8.458
ATOM     11  C   UNL d   1       3.706  -4.363  -1.737 -0.40 -0.00    -0.021     8.458
ATOM     12  C   UNL d   1       2.986  -5.266  -0.981 -0.41 +0.00    +0.000     8.458
ATOM     13  C   UNL d   1       2.303  -6.075  -1.905 -0.27 +0.00    +0.070     8.458
ATOM     14  C   UNL d   1       4.668  -3.319  -1.207 -0.50 +0.00    +0.052     8.458
ATOM     15  C   UNL d   1       0.743  -7.944  -2.435 -0.32 +0.01    +0.066     8.458
ATOM     16  C   UNL d   1      -0.222  -8.871  -2.064 -0.46 -0.00    -0.021     8.458
ATOM     17  C   UNL d   1      -0.597  -9.539  -3.211 -0.45 +0.00    +0.000     8.458
ATOM     18  C   UNL d   1       0.153  -9.005  -4.257 -0.34 +0.01    +0.070     8.458
ATOM     19  C   UNL d   1      -0.754  -9.139  -0.682 -0.20 -0.00    +0.052     8.458
ATOM     20  C   UNL d   1       0.786  -8.852  -6.671 -0.24 +0.02    +0.066     8.458
ATOM     21  C   UNL d   1       0.853  -9.406  -7.957 -0.18 -0.01    -0.025     8.458
ATOM     22  C   UNL d   1       1.600  -8.524  -8.710 -0.17 -0.01    -0.021     8.458
ATOM     23  C   UNL d   1       1.963  -7.475  -7.857 -0.23 +0.03    +0.066     8.458
ATOM     24  C   UNL d   1       0.253 -10.699  -8.460 -0.13 +0.01    +0.051     8.458
ATOM     25  N   UNL d   1       3.124  -5.424  -5.968 -0.22 -0.06    -0.248     8.458
ATOM     26  N   UNL d   1       2.577  -5.709  -3.181 -0.20 -0.02    -0.248     8.458
ATOM     27  N   UNL d   1       0.945  -7.995  -3.788 -0.24 -0.03    -0.248     8.458
ATOM     28  N   UNL d   1       1.501  -7.704  -6.603 -0.17 -0.09    -0.248     8.458
ATOM     29 FE   UNL d   1       2.038  -6.708  -4.892 -0.08 +0.00    +0.000     8.458
ATOM     30  C   UNL d   1       4.230  -3.832  -9.096 -0.28 +0.00    +0.052     8.458
ATOM     31  C   UNL d   1       5.523  -4.473  -9.588 -0.19 +0.01    +0.115     8.458
ATOM     32  C   UNL d   1       6.707  -3.627  -9.210 -0.30 -0.00    +0.139     8.458
ATOM     33  O   UNL d   1       7.707  -4.135  -8.723 -0.05 +0.04    -0.650     8.458
ATOM     34  O   UNL d   1       6.676  -2.298  -9.406 +0.09 +0.08    -0.776     8.458
ATOM     35  H   UNL d   1       6.156  -1.746  -8.804 -0.48 -0.06    +0.167     8.458
ATOM     36  C   UNL d   1       1.983  -8.706 -10.155 -0.10 +0.02    +0.052     8.458
ATOM     37  C   UNL d   1       1.538  -7.493 -10.960 -0.07 +0.05    +0.115     8.458
ATOM     38  C   UNL d   1       0.268  -6.914 -10.405 -0.09 +0.15    +0.139     8.458
ATOM     39  O   UNL d   1       0.262  -5.812  -9.877 -0.55 -0.96    -0.650     8.458
ATOM     40  O   UNL d   1      -0.879  -7.613 -10.484 -0.18 -1.06    -0.776     8.458
ATOM     41  H   UNL d   1      -0.871  -8.483 -10.906 +0.02 +0.13    +0.167     8.458
ATOM     42  C   UNL d   1       2.994  -5.329   0.513 -0.41 +0.00    +0.004     8.458
ATOM     43  C   UNL d   1       1.898  -5.692   1.194 -0.44 +0.00    +0.012     8.458
ATOM     44  C   UNL d   1      -1.621 -10.605  -3.304 -0.40 -0.00    +0.004     8.458
ATOM     45  C   UNL d   1      -1.327 -11.792  -3.844 -0.30 +0.00    +0.012     8.458
TER
ENDMDL
MODEL       76
USER    Run = 76
USER    Cluster Rank = 10
USER    Number of conformations in this cluster = 1
USER  
USER    RMSD from reference structure       = 6.705 A
USER  
USER    Estimated Free Energy of Binding    =  -10.77 kcal/mol  [=(1)+(2)+(3)-(4)]
USER    Estimated Inhibition Constant, Ki   =   12.79 nM (nanomolar)  [Temperature = 298.15 K]
USER    
USER    (1) Final Intermolecular Energy     =  -13.75 kcal/mol
USER        vdW + Hbond + desolv Energy     =  -13.68 kcal/mol
USER        Electrostatic Energy            =   -0.07 kcal/mol
USER    (2) Final Total Internal Energy     =   -0.62 kcal/mol
USER    (3) Torsional Free Energy           =   +2.98 kcal/mol
USER    (4) Unbound System's Energy  [=(2)] =   -0.62 kcal/mol
USER    
USER    
USER  
USER    DPF = D:/Protein_go_brrr/autodock/final/1A3N/heme_Fe/dock.dpf
USER    NEWDPF move	heme_Fe_opt.pdbqt
USER    NEWDPF about	-0.174000 -0.001000 -0.047000
USER    NEWDPF tran0	2.329437 -5.638581 -1.959022
USER    NEWDPF axisangle0	0.045385 0.833182 -0.551134 -97.256068
USER    NEWDPF quaternion0	0.034058 0.625248 -0.413590 -0.660945
USER    NEWDPF dihe0	23.34 -37.03 72.01 -173.88 150.75 129.26 -4.85 145.61 -177.77 21.24 
USER  
USER                              x       y       z    vdW   Elec        q     RMS 
ATOM      1  C   UNL d   1       2.965  -4.978  -0.123 -0.43 +0.00    +0.064     6.705
ATOM      2  C   UNL d   1       0.398  -8.889  -1.716 -0.42 +0.00    +0.064     6.705
ATOM      3  C   UNL d   1       1.844  -7.927  -6.194 -0.34 +0.02    +0.064     6.705
ATOM      4  C   UNL d   1       4.249  -4.076  -4.688 -0.48 +0.01    +0.064     6.705
ATOM      5  C   UNL d   1       2.041  -6.119  -0.168 -0.37 +0.00    +0.066     6.705
ATOM      6  C   UNL d   1       1.339  -6.611   0.921 -0.32 -0.00    -0.021     6.705
ATOM      7  C   UNL d   1       0.630  -7.700   0.478 -0.32 -0.00    -0.025     6.705
ATOM      8  C   UNL d   1       0.925  -7.830  -0.865 -0.37 +0.00    +0.066     6.705
ATOM      9  C   UNL d   1      -0.291  -8.548   1.301 -0.57 -0.00    +0.051     6.705
ATOM     10  C   UNL d   1       0.621  -9.004  -3.027 -0.37 +0.01    +0.066     6.705
ATOM     11  C   UNL d   1       0.197 -10.093  -3.793 -0.34 -0.00    -0.021     6.705
ATOM     12  C   UNL d   1       0.616  -9.848  -5.085 -0.31 +0.00    +0.000     6.705
ATOM     13  C   UNL d   1       1.288  -8.614  -5.039 -0.32 +0.01    +0.070     6.705
ATOM     14  C   UNL d   1      -0.513 -11.339  -3.304 -0.10 +0.00    +0.052     6.705
ATOM     15  C   UNL d   1       2.537  -6.765  -6.147 -0.27 +0.02    +0.066     6.705
ATOM     16  C   UNL d   1       2.964  -6.091  -7.284 -0.28 -0.01    -0.021     6.705
ATOM     17  C   UNL d   1       3.661  -4.981  -6.852 -0.36 +0.00    +0.000     6.705
ATOM     18  C   UNL d   1       3.646  -5.008  -5.459 -0.37 +0.01    +0.070     6.705
ATOM     19  C   UNL d   1       2.750  -6.484  -8.720 -0.23 +0.02    +0.052     6.705
ATOM     20  C   UNL d   1       4.202  -4.038  -3.222 -0.39 +0.01    +0.066     6.705
ATOM     21  C   UNL d   1       4.980  -3.203  -2.408 -0.45 -0.00    -0.025     6.705
ATOM     22  C   UNL d   1       4.589  -3.467  -1.112 -0.45 -0.00    -0.021     6.705
ATOM     23  C   UNL d   1       3.597  -4.452  -1.185 -0.37 +0.00    +0.066     6.705
ATOM     24  C   UNL d   1       6.042  -2.209  -2.818 -0.37 +0.00    +0.051     6.705
ATOM     25  N   UNL d   1       1.776  -6.861  -1.257 -0.24 -0.00    -0.248     6.705
ATOM     26  N   UNL d   1       1.299  -8.104  -3.783 -0.23 -0.03    -0.248     6.705
ATOM     27  N   UNL d   1       2.918  -6.080  -5.025 -0.24 -0.04    -0.248     6.705
ATOM     28  N   UNL d   1       3.397  -4.828  -2.471 -0.23 -0.01    -0.248     6.705
ATOM     29 FE   UNL d   1       2.349  -6.465  -3.128 -0.09 +0.00    +0.000     6.705
ATOM     30  C   UNL d   1       1.326  -6.065   2.307 -0.39 +0.00    +0.052     6.705
ATOM     31  C   UNL d   1       2.452  -6.671   3.138 -0.28 +0.01    +0.115     6.705
ATOM     32  C   UNL d   1       2.506  -6.030   4.497 -0.54 +0.01    +0.139     6.705
ATOM     33  O   UNL d   1       2.913  -6.657   5.465 -0.11 -0.05    -0.650     6.705
ATOM     34  O   UNL d   1       2.105  -4.758   4.660 +0.07 +0.01    -0.776     6.705
ATOM     35  H   UNL d   1       2.443  -4.252   5.412 -0.46 -0.04    +0.167     6.705
ATOM     36  C   UNL d   1       5.172  -2.842   0.128 -0.41 +0.01    +0.052     6.705
ATOM     37  C   UNL d   1       4.093  -2.067   0.869 -0.53 +0.00    +0.115     6.705
ATOM     38  C   UNL d   1       3.135  -1.424  -0.094 -0.34 +0.00    +0.139     6.705
ATOM     39  O   UNL d   1       1.928  -1.570   0.033 +0.01 -0.03    -0.650     6.705
ATOM     40  O   UNL d   1       3.604  -0.681  -1.112 +0.14 -0.01    -0.776     6.705
ATOM     41  H   UNL d   1       3.156  -0.721  -1.969 +0.13 +0.01    +0.167     6.705
ATOM     42  C   UNL d   1       0.387 -10.761  -6.247 -0.25 +0.00    +0.004     6.705
ATOM     43  C   UNL d   1      -0.307 -10.354  -7.318 -0.20 +0.00    +0.012     6.705
ATOM     44  C   UNL d   1       4.284  -3.952  -7.715 -0.42 +0.00    +0.004     6.705
ATOM     45  C   UNL d   1       5.599  -3.719  -7.663 -0.48 +0.00    +0.012     6.705
TER
ENDMDL
MODEL       28
USER    Run = 28
USER    Cluster Rank = 11
USER    Number of conformations in this cluster = 1
USER  
USER    RMSD from reference structure       = 34.292 A
USER  
USER    Estimated Free Energy of Binding    =  -10.13 kcal/mol  [=(1)+(2)+(3)-(4)]
USER    Estimated Inhibition Constant, Ki   =   37.42 nM (nanomolar)  [Temperature = 298.15 K]
USER    
USER    (1) Final Intermolecular Energy     =  -13.12 kcal/mol
USER        vdW + Hbond + desolv Energy     =  -11.32 kcal/mol
USER        Electrostatic Energy            =   -1.79 kcal/mol
USER    (2) Final Total Internal Energy     =   -2.04 kcal/mol
USER    (3) Torsional Free Energy           =   +2.98 kcal/mol
USER    (4) Unbound System's Energy  [=(2)] =   -2.04 kcal/mol
USER    
USER    
USER  
USER    DPF = D:/Protein_go_brrr/autodock/final/1A3N/heme_Fe/dock.dpf
USER    NEWDPF move	heme_Fe_opt.pdbqt
USER    NEWDPF about	-0.174000 -0.001000 -0.047000
USER    NEWDPF tran0	8.847395 13.880032 31.379818
USER    NEWDPF axisangle0	0.426581 0.327417 -0.843106 159.353090
USER    NEWDPF quaternion0	0.419675 0.322117 -0.829457 0.179205
USER    NEWDPF dihe0	72.70 -150.20 27.59 43.08 163.16 89.55 -67.19 121.97 -174.11 -178.85 
USER  
USER                              x       y       z    vdW   Elec        q     RMS 
ATOM      1  C   UNL d   1       9.573  12.594  32.805 -0.24 +0.04    +0.064    34.292
ATOM      2  C   UNL d   1       7.689  17.163  32.875 -0.18 +0.04    +0.064    34.292
ATOM      3  C   UNL d   1       6.033  16.475  28.420 -0.48 +0.01    +0.064    34.292
ATOM      4  C   UNL d   1       7.939  12.089  28.291 -0.28 +0.01    +0.064    34.292
ATOM      5  C   UNL d   1       9.269  13.975  33.206 -0.19 +0.04    +0.066    34.292
ATOM      6  C   UNL d   1       9.688  14.565  34.387 -0.17 -0.01    -0.021    34.292
ATOM      7  C   UNL d   1       9.162  15.833  34.407 -0.13 -0.02    -0.025    34.292
ATOM      8  C   UNL d   1       8.440  15.967  33.237 -0.17 +0.04    +0.066    34.292
ATOM      9  C   UNL d   1       9.362  16.855  35.484 -0.09 +0.03    +0.051    34.292
ATOM     10  C   UNL d   1       7.032  17.340  31.728 -0.22 +0.03    +0.066    34.292
ATOM     11  C   UNL d   1       6.228  18.450  31.458 -0.24 -0.01    -0.021    34.292
ATOM     12  C   UNL d   1       5.725  18.267  30.185 -0.35 +0.00    +0.000    34.292
ATOM     13  C   UNL d   1       6.247  17.039  29.743 -0.35 +0.01    +0.070    34.292
ATOM     14  C   UNL d   1       5.899  19.595  32.394 -0.16 +0.01    +0.052    34.292
ATOM     15  C   UNL d   1       6.491  15.269  28.008 -0.43 +0.01    +0.066    34.292
ATOM     16  C   UNL d   1       6.350  14.809  26.705 -0.43 -0.00    -0.021    34.292
ATOM     17  C   UNL d   1       6.896  13.543  26.666 -0.39 +0.00    +0.000    34.292
ATOM     18  C   UNL d   1       7.354  13.258  27.950 -0.32 +0.01    +0.070    34.292
ATOM     19  C   UNL d   1       5.705  15.520  25.545 -0.47 +0.00    +0.052    34.292
ATOM     20  C   UNL d   1       8.489  11.777  29.616 -0.25 +0.01    +0.066    34.292
ATOM     21  C   UNL d   1       8.914  10.510  30.039 -0.39 -0.01    -0.025    34.292
ATOM     22  C   UNL d   1       9.387  10.679  31.323 -0.29 -0.01    -0.021    34.292
ATOM     23  C   UNL d   1       9.227  12.035  31.634 -0.08 +0.03    +0.066    34.292
ATOM     24  C   UNL d   1       8.876   9.202  29.283 -0.38 +0.01    +0.051    34.292
ATOM     25  N   UNL d   1       8.515  14.838  32.504 -0.12 -0.13    -0.248    34.292
ATOM     26  N   UNL d   1       7.037  16.469  30.686 -0.18 -0.08    -0.248    34.292
ATOM     27  N   UNL d   1       7.145  14.335  28.765 -0.24 -0.05    -0.248    34.292
ATOM     28  N   UNL d   1       8.638  12.691  30.605 -0.20 -0.07    -0.248    34.292
ATOM     29 FE   UNL d   1       7.837  14.579  30.645 -0.06 +0.00    +0.000    34.292
ATOM     30  C   UNL d   1      10.563  13.966  35.434 -0.20 +0.04    +0.052    34.292
ATOM     31  C   UNL d   1       9.743  13.129  36.410 -0.09 +0.09    +0.115    34.292
ATOM     32  C   UNL d   1      10.092  11.673  36.277 -0.16 +0.14    +0.139    34.292
ATOM     33  O   UNL d   1       9.790  10.877  37.155 -0.04 -0.51    -0.650    34.292
ATOM     34  O   UNL d   1      10.743  11.232  35.188 -0.27 -1.18    -0.776    34.292
ATOM     35  H   UNL d   1      10.261  10.707  34.533 +0.07 +0.17    +0.167    34.292
ATOM     36  C   UNL d   1       9.917   9.589  32.217 -0.34 +0.02    +0.052    34.292
ATOM     37  C   UNL d   1       8.758   8.861  32.881 -0.35 +0.04    +0.115    34.292
ATOM     38  C   UNL d   1       7.919   9.810  33.691 -0.40 +0.06    +0.139    34.292
ATOM     39  O   UNL d   1       6.976  10.399  33.185 -0.08 -0.24    -0.650    34.292
ATOM     40  O   UNL d   1       8.207  10.020  34.988 -0.44 -0.52    -0.776    34.292
ATOM     41  H   UNL d   1       9.124   9.938  35.286 +0.07 +0.14    +0.167    34.292
ATOM     42  C   UNL d   1       4.800  19.212  29.487 -0.35 -0.00    +0.004    34.292
ATOM     43  C   UNL d   1       5.251  20.364  28.972 -0.38 +0.00    +0.012    34.292
ATOM     44  C   UNL d   1       6.992  12.671  25.473 -0.44 +0.00    +0.004    34.292
ATOM     45  C   UNL d   1       8.116  12.618  24.752 -0.45 +0.00    +0.012    34.292
TER
ENDMDL
MODEL       72
USER    Run = 72
USER    Cluster Rank = 12
USER    Number of conformations in this cluster = 2
USER  
USER    RMSD from reference structure       = 21.744 A
USER  
USER    Estimated Free Energy of Binding    =   -8.95 kcal/mol  [=(1)+(2)+(3)-(4)]
USER    Estimated Inhibition Constant, Ki   =  276.73 nM (nanomolar)  [Temperature = 298.15 K]
USER    
USER    (1) Final Intermolecular Energy     =  -11.93 kcal/mol
USER        vdW + Hbond + desolv Energy     =   -9.83 kcal/mol
USER        Electrostatic Energy            =   -2.09 kcal/mol
USER    (2) Final Total Internal Energy     =   -2.20 kcal/mol
USER    (3) Torsional Free Energy           =   +2.98 kcal/mol
USER    (4) Unbound System's Energy  [=(2)] =   -2.20 kcal/mol
USER    
USER    
USER  
USER    DPF = D:/Protein_go_brrr/autodock/final/1A3N/heme_Fe/dock.dpf
USER    NEWDPF move	heme_Fe_opt.pdbqt
USER    NEWDPF about	-0.174000 -0.001000 -0.047000
USER    NEWDPF tran0	15.550395 6.801660 16.304089
USER    NEWDPF axisangle0	-0.990093 -0.117867 -0.076315 -167.576015
USER    NEWDPF quaternion0	-0.984279 -0.117175 -0.075867 -0.108207
USER    NEWDPF dihe0	-32.23 168.08 20.40 -132.32 93.11 82.43 -131.40 -166.17 179.45 164.12 
USER  
USER                              x       y       z    vdW   Elec        q     RMS 
ATOM      1  C   UNL d   1      13.698   6.556  15.456 -0.37 +0.03    +0.064    21.744
ATOM      2  C   UNL d   1      16.362  10.450  16.930 -0.22 +0.00    +0.064    21.744
ATOM      3  C   UNL d   1      20.247   7.632  17.122 -0.29 +0.01    +0.064    21.744
ATOM      4  C   UNL d   1      17.665   3.828  15.797 -0.27 +0.00    +0.064    21.744
ATOM      5  C   UNL d   1      14.070   7.895  15.934 -0.27 +0.02    +0.066    21.744
ATOM      6  C   UNL d   1      13.184   8.943  16.120 -0.36 -0.00    -0.021    21.744
ATOM      7  C   UNL d   1      13.925  10.025  16.526 -0.40 -0.00    -0.025    21.744
ATOM      8  C   UNL d   1      15.237   9.595  16.572 -0.27 +0.01    +0.066    21.744
ATOM      9  C   UNL d   1      13.392  11.383  16.866 -0.50 +0.00    +0.051    21.744
ATOM     10  C   UNL d   1      17.629  10.046  17.038 -0.14 +0.01    +0.066    21.744
ATOM     11  C   UNL d   1      18.701  10.911  17.271 -0.28 -0.00    -0.021    21.744
ATOM     12  C   UNL d   1      19.835  10.125  17.314 -0.26 +0.00    +0.000    21.744
ATOM     13  C   UNL d   1      19.393   8.809  17.094 -0.20 +0.02    +0.070    21.744
ATOM     14  C   UNL d   1      18.656  12.422  17.379 -0.30 -0.00    +0.052    21.744
ATOM     15  C   UNL d   1      19.835   6.369  16.860 -0.23 +0.01    +0.066    21.744
ATOM     16  C   UNL d   1      20.660   5.259  16.994 -0.27 +0.00    -0.021    21.744
ATOM     17  C   UNL d   1      19.918   4.161  16.609 -0.25 -0.00    +0.000    21.744
ATOM     18  C   UNL d   1      18.657   4.628  16.245 -0.22 -0.00    +0.070    21.744
ATOM     19  C   UNL d   1      22.096   5.231  17.441 -0.22 -0.01    +0.052    21.744
ATOM     20  C   UNL d   1      16.308   4.275  15.464 -0.22 +0.04    +0.066    21.744
ATOM     21  C   UNL d   1      15.337   3.501  14.814 -0.21 -0.01    -0.025    21.744
ATOM     22  C   UNL d   1      14.210   4.294  14.738 -0.27 -0.02    -0.021    21.744
ATOM     23  C   UNL d   1      14.538   5.516  15.336 -0.29 +0.04    +0.066    21.744
ATOM     24  C   UNL d   1      15.454   2.090  14.284 -0.17 +0.01    +0.051    21.744
ATOM     25  N   UNL d   1      15.321   8.296  16.221 -0.17 -0.08    -0.248    21.744
ATOM     26  N   UNL d   1      18.050   8.761  16.918 -0.06 -0.07    -0.248    21.744
ATOM     27  N   UNL d   1      18.591   5.980  16.440 -0.14 -0.05    -0.248    21.744
ATOM     28  N   UNL d   1      15.833   5.515  15.736 -0.21 -0.17    -0.248    21.744
ATOM     29 FE   UNL d   1      16.942   7.136  16.327 -0.06 +0.00    +0.000    21.744
ATOM     30  C   UNL d   1      11.704   8.914  15.943 -0.45 +0.01    +0.052    21.744
ATOM     31  C   UNL d   1      11.322   9.311  14.521 -0.26 +0.02    +0.115    21.744
ATOM     32  C   UNL d   1      12.146   8.547  13.522 -0.12 +0.04    +0.139    21.744
ATOM     33  O   UNL d   1      11.734   7.496  13.050 +0.03 -0.22    -0.650    21.744
ATOM     34  O   UNL d   1      13.346   9.013  13.139 +0.11 -0.29    -0.776    21.744
ATOM     35  H   UNL d   1      14.043   8.383  12.910 +0.04 +0.11    +0.167    21.744
ATOM     36  C   UNL d   1      12.908   3.912  14.084 -0.27 +0.05    +0.052    21.744
ATOM     37  C   UNL d   1      12.841   4.512  12.687 -0.18 +0.07    +0.115    21.744
ATOM     38  C   UNL d   1      14.186   5.025  12.256 -0.05 +0.15    +0.139    21.744
ATOM     39  O   UNL d   1      15.023   4.267  11.788 -0.24 -0.84    -0.650    21.744
ATOM     40  O   UNL d   1      14.479   6.331  12.386 +0.07 -1.14    -0.776    21.744
ATOM     41  H   UNL d   1      13.768   6.954  12.588 +0.04 +0.14    +0.167    21.744
ATOM     42  C   UNL d   1      21.223  10.637  17.531 -0.40 +0.00    +0.004    21.744
ATOM     43  C   UNL d   1      21.591  11.151  18.712 -0.55 +0.01    +0.012    21.744
ATOM     44  C   UNL d   1      20.379   2.754  16.609 -0.24 -0.00    +0.004    21.744
ATOM     45  C   UNL d   1      21.166   2.291  15.632 -0.28 -0.00    +0.012    21.744
TER
ENDMDL
MODEL        5
USER    Run = 5
USER    Cluster Rank = 13
USER    Number of conformations in this cluster = 1
USER  
USER    RMSD from reference structure       = 18.628 A
USER  
USER    Estimated Free Energy of Binding    =   -8.83 kcal/mol  [=(1)+(2)+(3)-(4)]
USER    Estimated Inhibition Constant, Ki   =  334.25 nM (nanomolar)  [Temperature = 298.15 K]
USER    
USER    (1) Final Intermolecular Energy     =  -11.82 kcal/mol
USER        vdW + Hbond + desolv Energy     =  -10.89 kcal/mol
USER        Electrostatic Energy            =   -0.92 kcal/mol
USER    (2) Final Total Internal Energy     =   -0.46 kcal/mol
USER    (3) Torsional Free Energy           =   +2.98 kcal/mol
USER    (4) Unbound System's Energy  [=(2)] =   -0.46 kcal/mol
USER    
USER    
USER  
USER    DPF = D:/Protein_go_brrr/autodock/final/1A3N/heme_Fe/dock.dpf
USER    NEWDPF move	heme_Fe_opt.pdbqt
USER    NEWDPF about	-0.174000 -0.001000 -0.047000
USER    NEWDPF tran0	18.365677 -4.603387 10.096392
USER    NEWDPF axisangle0	-0.804404 -0.408149 -0.431681 179.020252
USER    NEWDPF quaternion0	-0.804375 -0.408134 -0.431665 0.008550
USER    NEWDPF dihe0	-112.21 80.49 -173.43 13.73 128.46 109.48 -61.01 -42.27 -17.55 48.37 
USER  
USER                              x       y       z    vdW   Elec        q     RMS 
ATOM      1  C   UNL d   1      18.118  -5.699   8.379 -0.24 +0.00    +0.064    18.628
ATOM      2  C   UNL d   1      16.897  -1.123   9.794 -0.23 -0.01    +0.064    18.628
ATOM      3  C   UNL d   1      19.916  -1.541  13.507 -0.16 -0.00    +0.064    18.628
ATOM      4  C   UNL d   1      21.032  -6.010  12.215 -0.27 +0.00    +0.064    18.628
ATOM      5  C   UNL d   1      17.432  -4.404   8.481 -0.18 -0.00    +0.066    18.628
ATOM      6  C   UNL d   1      16.412  -3.982   7.644 -0.22 +0.00    -0.021    18.628
ATOM      7  C   UNL d   1      16.076  -2.709   8.035 -0.23 +0.01    -0.025    18.628
ATOM      8  C   UNL d   1      16.905  -2.403   9.097 -0.18 -0.01    +0.066    18.628
ATOM      9  C   UNL d   1      15.006  -1.853   7.430 -0.29 -0.03    +0.051    18.628
ATOM     10  C   UNL d   1      17.646  -0.823  10.857 -0.17 -0.00    +0.066    18.628
ATOM     11  C   UNL d   1      17.700   0.449  11.432 -0.21 -0.00    -0.021    18.628
ATOM     12  C   UNL d   1      18.577   0.359  12.495 -0.16 +0.00    +0.000    18.628
ATOM     13  C   UNL d   1      19.023  -0.974  12.508 -0.11 -0.00    +0.070    18.628
ATOM     14  C   UNL d   1      17.004   1.705  10.951 -0.32 +0.01    +0.052    18.628
ATOM     15  C   UNL d   1      20.388  -2.809  13.494 -0.15 -0.00    +0.066    18.628
ATOM     16  C   UNL d   1      21.159  -3.342  14.520 -0.27 +0.00    -0.021    18.628
ATOM     17  C   UNL d   1      21.485  -4.630  14.148 -0.29 -0.00    +0.000    18.628
ATOM     18  C   UNL d   1      20.908  -4.852  12.899 -0.19 +0.00    +0.070    18.628
ATOM     19  C   UNL d   1      21.595  -2.662  15.789 -0.26 -0.01    +0.052    18.628
ATOM     20  C   UNL d   1      20.388  -6.301  10.928 -0.13 +0.00    +0.066    18.628
ATOM     21  C   UNL d   1      20.665  -7.410  10.116 -0.23 -0.00    -0.025    18.628
ATOM     22  C   UNL d   1      19.814  -7.308   9.035 -0.22 +0.00    -0.021    18.628
ATOM     23  C   UNL d   1      19.060  -6.144   9.225 -0.15 +0.00    +0.066    18.628
ATOM     24  C   UNL d   1      21.677  -8.510  10.336 -0.45 +0.00    +0.051    18.628
ATOM     25  N   UNL d   1      17.722  -3.440   9.372 -0.11 +0.01    -0.248    18.628
ATOM     26  N   UNL d   1      18.462  -1.693  11.505 -0.07 +0.00    -0.248    18.628
ATOM     27  N   UNL d   1      20.197  -3.749  12.517 -0.08 +0.00    -0.248    18.628
ATOM     28  N   UNL d   1      19.446  -5.510  10.359 -0.11 -0.01    -0.248    18.628
ATOM     29 FE   UNL d   1      18.956  -3.603  10.933 -0.04 +0.00    +0.000    18.628
ATOM     30  C   UNL d   1      15.772  -4.754   6.542 -0.24 +0.00    +0.052    18.628
ATOM     31  C   UNL d   1      14.893  -5.868   7.101 -0.23 +0.03    +0.115    18.628
ATOM     32  C   UNL d   1      13.464  -5.673   6.678 -0.34 +0.07    +0.139    18.628
ATOM     33  O   UNL d   1      12.840  -6.583   6.150 -0.49 -0.48    -0.650    18.628
ATOM     34  O   UNL d   1      12.856  -4.491   6.878 -0.53 -0.33    -0.776    18.628
ATOM     35  H   UNL d   1      13.153  -3.720   6.375 +0.09 -0.04    +0.167    18.628
ATOM     36  C   UNL d   1      19.766  -8.251   7.862 -0.34 -0.00    +0.052    18.628
ATOM     37  C   UNL d   1      18.332  -8.387   7.372 -0.22 +0.01    +0.115    18.628
ATOM     38  C   UNL d   1      18.270  -8.347   5.871 -0.35 +0.01    +0.139    18.628
ATOM     39  O   UNL d   1      18.001  -9.352   5.230 -0.05 -0.04    -0.650    18.628
ATOM     40  O   UNL d   1      18.516  -7.197   5.219 -0.52 -0.12    -0.776    18.628
ATOM     41  H   UNL d   1      17.770  -6.666   4.905 -0.43 +0.00    +0.167    18.628
ATOM     42  C   UNL d   1      18.949   1.493  13.396 -0.19 +0.00    +0.004    18.628
ATOM     43  C   UNL d   1      20.231   1.827  13.590 -0.22 +0.00    +0.012    18.628
ATOM     44  C   UNL d   1      22.279  -5.593  14.944 -0.52 -0.00    +0.004    18.628
ATOM     45  C   UNL d   1      21.801  -6.095  16.087 -0.58 +0.00    +0.012    18.628
TER
ENDMDL
MODEL       18
USER    Run = 18
USER    Cluster Rank = 14
USER    Number of conformations in this cluster = 1
USER  
USER    RMSD from reference structure       = 25.136 A
USER  
USER    Estimated Free Energy of Binding    =   -8.77 kcal/mol  [=(1)+(2)+(3)-(4)]
USER    Estimated Inhibition Constant, Ki   =  374.98 nM (nanomolar)  [Temperature = 298.15 K]
USER    
USER    (1) Final Intermolecular Energy     =  -11.75 kcal/mol
USER        vdW + Hbond + desolv Energy     =   -8.52 kcal/mol
USER        Electrostatic Energy            =   -3.23 kcal/mol
USER    (2) Final Total Internal Energy     =   -1.72 kcal/mol
USER    (3) Torsional Free Energy           =   +2.98 kcal/mol
USER    (4) Unbound System's Energy  [=(2)] =   -1.72 kcal/mol
USER    
USER    
USER  
USER    DPF = D:/Protein_go_brrr/autodock/final/1A3N/heme_Fe/dock.dpf
USER    NEWDPF move	heme_Fe_opt.pdbqt
USER    NEWDPF about	-0.174000 -0.001000 -0.047000
USER    NEWDPF tran0	19.021645 12.178021 15.340695
USER    NEWDPF axisangle0	-0.240530 0.359648 0.901553 133.497666
USER    NEWDPF quaternion0	-0.220995 0.330439 0.828332 0.394763
USER    NEWDPF dihe0	99.40 -95.63 -173.32 -92.81 -157.06 153.37 -46.11 -79.71 -153.60 -13.00 
USER  
USER                              x       y       z    vdW   Elec        q     RMS 
ATOM      1  C   UNL d   1      19.828  13.989  15.870 -0.19 +0.02    +0.064    25.136
ATOM      2  C   UNL d   1      16.104  12.558  12.953 -0.14 +0.00    +0.064    25.136
ATOM      3  C   UNL d   1      16.284   8.205  14.976 -0.14 +0.06    +0.064    25.136
ATOM      4  C   UNL d   1      19.958   9.538  17.734 -0.33 +0.02    +0.064    25.136
ATOM      5  C   UNL d   1      18.819  13.965  14.803 -0.12 +0.01    +0.066    25.136
ATOM      6  C   UNL d   1      18.565  15.010  13.930 -0.15 -0.00    -0.021    25.136
ATOM      7  C   UNL d   1      17.528  14.613  13.123 -0.10 -0.00    -0.025    25.136
ATOM      8  C   UNL d   1      17.188  13.339  13.534 -0.16 +0.01    +0.066    25.136
ATOM      9  C   UNL d   1      16.919  15.412  12.011 -0.06 +0.01    +0.051    25.136
ATOM     10  C   UNL d   1      15.793  11.305  13.292 -0.10 +0.01    +0.066    25.136
ATOM     11  C   UNL d   1      14.677  10.624  12.799 -0.08 -0.01    -0.021    25.136
ATOM     12  C   UNL d   1      14.697   9.371  13.380 -0.09 +0.00    +0.000    25.136
ATOM     13  C   UNL d   1      15.830   9.357  14.212 -0.09 +0.04    +0.070    25.136
ATOM     14  C   UNL d   1      13.606  11.163  11.873 -0.10 +0.01    +0.052    25.136
ATOM     15  C   UNL d   1      17.344   8.202  15.818 -0.18 +0.04    +0.066    25.136
ATOM     16  C   UNL d   1      17.805   7.055  16.452 -0.24 -0.01    -0.021    25.136
ATOM     17  C   UNL d   1      18.863   7.438  17.251 -0.21 +0.00    +0.000    25.136
ATOM     18  C   UNL d   1      19.020   8.812  17.088 -0.16 +0.02    +0.070    25.136
ATOM     19  C   UNL d   1      17.260   5.657  16.333 -0.34 +0.02    +0.052    25.136
ATOM     20  C   UNL d   1      20.192  10.974  17.541 -0.26 +0.02    +0.066    25.136
ATOM     21  C   UNL d   1      21.019  11.775  18.342 -0.43 -0.01    -0.025    25.136
ATOM     22  C   UNL d   1      20.977  13.036  17.786 -0.35 -0.01    -0.021    25.136
ATOM     23  C   UNL d   1      20.126  12.958  16.677 -0.18 +0.02    +0.066    25.136
ATOM     24  C   UNL d   1      21.808  11.384  19.571 -0.26 +0.02    +0.051    25.136
ATOM     25  N   UNL d   1      17.981  12.944  14.550 -0.07 -0.03    -0.248    25.136
ATOM     26  N   UNL d   1      16.493  10.538  14.166 -0.04 -0.08    -0.248    25.136
ATOM     27  N   UNL d   1      18.115   9.276  16.174 -0.09 -0.08    -0.248    25.136
ATOM     28  N   UNL d   1      19.615  11.708  16.559 -0.07 -0.05    -0.248    25.136
ATOM     29 FE   UNL d   1      18.055  11.122  15.364 -0.04 +0.00    +0.000    25.136
ATOM     30  C   UNL d   1      19.284  16.313  13.852 -0.15 +0.02    +0.052    25.136
ATOM     31  C   UNL d   1      19.088  17.118  15.132 -0.19 +0.06    +0.115    25.136
ATOM     32  C   UNL d   1      20.399  17.681  15.606 -0.18 +0.15    +0.139    25.136
ATOM     33  O   UNL d   1      20.558  17.988  16.779 -0.47 -0.83    -0.650    25.136
ATOM     34  O   UNL d   1      21.412  17.853  14.740 -0.08 -1.20    -0.776    25.136
ATOM     35  H   UNL d   1      21.959  17.093  14.500 +0.06 +0.24    +0.167    25.136
ATOM     36  C   UNL d   1      21.678  14.257  18.320 -0.52 +0.01    +0.052    25.136
ATOM     37  C   UNL d   1      23.115  14.284  17.822 -0.40 +0.03    +0.115    25.136
ATOM     38  C   UNL d   1      23.260  15.208  16.646 -0.25 +0.16    +0.139    25.136
ATOM     39  O   UNL d   1      24.330  15.746  16.402 -0.40 -1.24    -0.650    25.136
ATOM     40  O   UNL d   1      22.204  15.452  15.850 +0.02 -0.86    -0.776    25.136
ATOM     41  H   UNL d   1      21.571  16.138  16.106 +0.08 +0.21    +0.167    25.136
ATOM     42  C   UNL d   1      13.678   8.303  13.145 -0.12 +0.00    +0.004    25.136
ATOM     43  C   UNL d   1      13.031   7.730  14.169 -0.20 +0.01    +0.012    25.136
ATOM     44  C   UNL d   1      19.683   6.543  18.099 -0.42 -0.00    +0.004    25.136
ATOM     45  C   UNL d   1      19.121   5.537  18.776 -0.53 -0.01    +0.012    25.136
TER
ENDMDL
MODEL       45
USER    Run = 45
USER    Cluster Rank = 15
USER    Number of conformations in this cluster = 1
USER  
USER    RMSD from reference structure       = 22.525 A
USER  
USER    Estimated Free Energy of Binding    =   -7.41 kcal/mol  [=(1)+(2)+(3)-(4)]
USER    Estimated Inhibition Constant, Ki   =    3.72 uM (micromolar)  [Temperature = 298.15 K]
USER    
USER    (1) Final Intermolecular Energy     =  -10.39 kcal/mol
USER        vdW + Hbond + desolv Energy     =   -7.09 kcal/mol
USER        Electrostatic Energy            =   -3.30 kcal/mol
USER    (2) Final Total Internal Energy     =   -1.14 kcal/mol
USER    (3) Torsional Free Energy           =   +2.98 kcal/mol
USER    (4) Unbound System's Energy  [=(2)] =   -1.14 kcal/mol
USER    
USER    
USER  
USER    DPF = D:/Protein_go_brrr/autodock/final/1A3N/heme_Fe/dock.dpf
USER    NEWDPF move	heme_Fe_opt.pdbqt
USER    NEWDPF about	-0.174000 -0.001000 -0.047000
USER    NEWDPF tran0	6.345866 -13.242903 19.036854
USER    NEWDPF axisangle0	0.036242 0.942749 -0.331527 106.658510
USER    NEWDPF quaternion0	0.029069 0.756161 -0.265912 0.597216
USER    NEWDPF dihe0	76.64 126.22 65.60 -111.81 179.17 -5.88 73.76 51.92 24.89 58.58 
USER  
USER                              x       y       z    vdW   Elec        q     RMS 
ATOM      1  C   UNL d   1       6.438 -14.205  17.227 -0.09 +0.03    +0.064    22.525
ATOM      2  C   UNL d   1       6.485 -15.663  21.949 -0.18 +0.02    +0.064    22.525
ATOM      3  C   UNL d   1       4.924 -11.307  23.237 -0.21 +0.03    +0.064    22.525
ATOM      4  C   UNL d   1       4.971  -9.843  18.683 -0.23 +0.02    +0.064    22.525
ATOM      5  C   UNL d   1       6.676 -14.993  18.444 -0.09 +0.03    +0.066    22.525
ATOM      6  C   UNL d   1       7.232 -16.262  18.469 -0.10 -0.01    -0.021    22.525
ATOM      7  C   UNL d   1       7.241 -16.667  19.781 -0.15 -0.01    -0.025    22.525
ATOM      8  C   UNL d   1       6.690 -15.629  20.507 -0.16 +0.03    +0.066    22.525
ATOM      9  C   UNL d   1       7.768 -17.970  20.298 -0.14 +0.03    +0.051    22.525
ATOM     10  C   UNL d   1       6.010 -14.654  22.681 -0.18 +0.02    +0.066    22.525
ATOM     11  C   UNL d   1       5.717 -14.755  24.044 -0.17 -0.00    -0.021    22.525
ATOM     12  C   UNL d   1       5.249 -13.517  24.435 -0.16 +0.00    +0.000    22.525
ATOM     13  C   UNL d   1       5.273 -12.718  23.279 -0.19 +0.02    +0.070    22.525
ATOM     14  C   UNL d   1       5.814 -15.991  24.915 -0.14 +0.01    +0.052    22.525
ATOM     15  C   UNL d   1       4.895 -10.548  22.117 -0.17 +0.04    +0.066    22.525
ATOM     16  C   UNL d   1       4.654  -9.180  22.133 -0.18 -0.01    -0.021    22.525
ATOM     17  C   UNL d   1       4.663  -8.756  20.820 -0.20 +0.00    +0.000    22.525
ATOM     18  C   UNL d   1       4.907  -9.878  20.032 -0.17 +0.03    +0.070    22.525
ATOM     19  C   UNL d   1       4.398  -8.307  23.332 -0.19 +0.01    +0.052    22.525
ATOM     20  C   UNL d   1       5.286 -10.991  17.825 -0.18 +0.02    +0.066    22.525
ATOM     21  C   UNL d   1       5.161 -11.017  16.428 -0.25 -0.01    -0.025    22.525
ATOM     22  C   UNL d   1       5.596 -12.265  16.033 -0.16 -0.01    -0.021    22.525
ATOM     23  C   UNL d   1       5.962 -12.950  17.198 -0.07 +0.02    +0.066    22.525
ATOM     24  C   UNL d   1       4.655  -9.932  15.506 -0.26 +0.01    +0.051    22.525
ATOM     25  N   UNL d   1       6.356 -14.608  19.692 -0.05 -0.13    -0.248    22.525
ATOM     26  N   UNL d   1       5.728 -13.413  22.207 -0.13 -0.11    -0.248    22.525
ATOM     27  N   UNL d   1       5.093 -10.972  20.830 -0.15 -0.13    -0.248    22.525
ATOM     28  N   UNL d   1       5.729 -12.184  18.291 -0.01 -0.08    -0.248    22.525
ATOM     29 FE   UNL d   1       5.728 -12.797  20.248 -0.05 +0.00    +0.000    22.525
ATOM     30  C   UNL d   1       7.748 -17.043  17.309 -0.05 +0.04    +0.052    22.525
ATOM     31  C   UNL d   1       9.255 -17.243  17.421 -0.05 +0.15    +0.115    22.525
ATOM     32  C   UNL d   1       9.978 -16.364  16.439 -0.05 +0.19    +0.139    22.525
ATOM     33  O   UNL d   1      11.199 -16.365  16.382 -0.41 -1.33    -0.650    22.525
ATOM     34  O   UNL d   1       9.283 -15.566  15.610 +0.03 -0.80    -0.776    22.525
ATOM     35  H   UNL d   1       9.181 -15.825  14.684 +0.02 +0.22    +0.167    22.525
ATOM     36  C   UNL d   1       5.611 -12.785  14.620 -0.21 +0.02    +0.052    22.525
ATOM     37  C   UNL d   1       6.658 -13.881  14.487 -0.11 +0.08    +0.115    22.525
ATOM     38  C   UNL d   1       7.571 -13.617  13.323 -0.20 +0.15    +0.139    22.525
ATOM     39  O   UNL d   1       7.357 -12.686  12.560 -0.50 -0.67    -0.650    22.525
ATOM     40  O   UNL d   1       8.634 -14.412  13.110 -0.02 -1.48    -0.776    22.525
ATOM     41  H   UNL d   1       9.268 -14.551  13.828 +0.03 +0.24    +0.167    22.525
ATOM     42  C   UNL d   1       4.804 -13.169  25.820 -0.15 +0.00    +0.004    22.525
ATOM     43  C   UNL d   1       5.487 -12.288  26.563 -0.23 +0.00    +0.012    22.525
ATOM     44  C   UNL d   1       4.473  -7.365  20.352 -0.34 +0.00    +0.004    22.525
ATOM     45  C   UNL d   1       3.361  -6.686  20.656 -0.44 +0.00    +0.012    22.525
TER
ENDMDL
MODEL       57
USER    Run = 57
USER    Cluster Rank = 16
USER    Number of conformations in this cluster = 1
USER  
USER    RMSD from reference structure       = 20.837 A
USER  
USER    Estimated Free Energy of Binding    =   -7.19 kcal/mol  [=(1)+(2)+(3)-(4)]
USER    Estimated Inhibition Constant, Ki   =    5.39 uM (micromolar)  [Temperature = 298.15 K]
USER    
USER    (1) Final Intermolecular Energy     =  -10.17 kcal/mol
USER        vdW + Hbond + desolv Energy     =   -6.40 kcal/mol
USER        Electrostatic Energy            =   -3.77 kcal/mol
USER    (2) Final Total Internal Energy     =   -0.80 kcal/mol
USER    (3) Torsional Free Energy           =   +2.98 kcal/mol
USER    (4) Unbound System's Energy  [=(2)] =   -0.80 kcal/mol
USER    
USER    
USER  
USER    DPF = D:/Protein_go_brrr/autodock/final/1A3N/heme_Fe/dock.dpf
USER    NEWDPF move	heme_Fe_opt.pdbqt
USER    NEWDPF about	-0.174000 -0.001000 -0.047000
USER    NEWDPF tran0	7.673982 -15.990245 15.578028
USER    NEWDPF axisangle0	-0.640754 -0.751911 -0.155128 -175.729372
USER    NEWDPF quaternion0	-0.640309 -0.751389 -0.155020 -0.037260
USER    NEWDPF dihe0	-166.93 152.76 95.41 55.24 68.43 102.72 -128.54 141.01 163.94 -0.01 
USER  
USER                              x       y       z    vdW   Elec        q     RMS 
ATOM      1  C   UNL d   1       8.043 -17.732  14.558 -0.07 +0.07    +0.064    20.837
ATOM      2  C   UNL d   1       4.131 -14.753  15.056 -0.15 +0.02    +0.064    20.837
ATOM      3  C   UNL d   1       7.023 -11.371  16.862 -0.08 +0.02    +0.064    20.837
ATOM      4  C   UNL d   1      10.805 -14.275  16.487 -0.08 +0.06    +0.064    20.837
ATOM      5  C   UNL d   1       6.661 -17.238  14.608 -0.06 +0.06    +0.066    20.837
ATOM      6  C   UNL d   1       5.542 -17.982  14.271 -0.12 -0.01    -0.021    20.837
ATOM      7  C   UNL d   1       4.456 -17.152  14.406 -0.17 -0.01    -0.025    20.837
ATOM      8  C   UNL d   1       4.954 -15.933  14.821 -0.08 +0.03    +0.066    20.837
ATOM      9  C   UNL d   1       3.025 -17.525  14.166 -0.30 +0.00    +0.051    20.837
ATOM     10  C   UNL d   1       4.578 -13.582  15.511 -0.15 +0.02    +0.066    20.837
ATOM     11  C   UNL d   1       3.785 -12.437  15.617 -0.33 -0.00    -0.021    20.837
ATOM     12  C   UNL d   1       4.600 -11.443  16.120 -0.32 +0.00    +0.000    20.837
ATOM     13  C   UNL d   1       5.863 -12.036  16.289 -0.12 +0.02    +0.070    20.837
ATOM     14  C   UNL d   1       2.339 -12.279  15.195 -0.44 +0.01    +0.052    20.837
ATOM     15  C   UNL d   1       8.254 -11.921  16.979 -0.02 +0.03    +0.066    20.837
ATOM     16  C   UNL d   1       9.310 -11.289  17.623 -0.02 -0.01    -0.021    20.837
ATOM     17  C   UNL d   1      10.403 -12.123  17.513 -0.05 +0.00    +0.000    20.837
ATOM     18  C   UNL d   1       9.988 -13.246  16.799 -0.03 +0.05    +0.070    20.837
ATOM     19  C   UNL d   1       9.301  -9.942  18.294 -0.03 +0.02    +0.052    20.837
ATOM     20  C   UNL d   1      10.390 -15.499  15.792 -0.06 +0.08    +0.066    20.837
ATOM     21  C   UNL d   1      11.257 -16.478  15.287 -0.08 -0.03    -0.025    20.837
ATOM     22  C   UNL d   1      10.448 -17.460  14.753 -0.08 -0.02    -0.021    20.837
ATOM     23  C   UNL d   1       9.127 -17.041  14.946 -0.06 +0.08    +0.066    20.837
ATOM     24  C   UNL d   1      12.768 -16.496  15.298 -0.07 +0.06    +0.051    20.837
ATOM     25  N   UNL d   1       6.295 -15.991  14.953 -0.02 -0.18    -0.248    20.837
ATOM     26  N   UNL d   1       5.853 -13.338  15.910 -0.04 -0.10    -0.248    20.837
ATOM     27  N   UNL d   1       8.657 -13.143  16.509 +0.01 -0.14    -0.248    20.837
ATOM     28  N   UNL d   1       9.098 -15.823  15.540 -0.03 -0.26    -0.248    20.837
ATOM     29 FE   UNL d   1       7.477 -14.580  15.725 -0.02 +0.00    +0.000    20.837
ATOM     30  C   UNL d   1       5.502 -19.414  13.861 -0.16 +0.02    +0.052    20.837
ATOM     31  C   UNL d   1       5.225 -19.541  12.367 -0.30 +0.06    +0.115    20.837
ATOM     32  C   UNL d   1       6.177 -18.684  11.581 -0.29 +0.18    +0.139    20.837
ATOM     33  O   UNL d   1       7.368 -18.959  11.532 -0.29 -1.12    -0.650    20.837
ATOM     34  O   UNL d   1       5.726 -17.604  10.922 -0.82 -1.25    -0.776    20.837
ATOM     35  H   UNL d   1       4.835 -17.277  11.110 +0.07 +0.19    +0.167    20.837
ATOM     36  C   UNL d   1      10.923 -18.706  14.053 -0.08 +0.05    +0.052    20.837
ATOM     37  C   UNL d   1      10.933 -19.872  15.031 -0.03 +0.08    +0.115    20.837
ATOM     38  C   UNL d   1      11.426 -19.437  16.382 -0.04 +0.17    +0.139    20.837
ATOM     39  O   UNL d   1      10.643 -19.246  17.302 -0.09 -0.99    -0.650    20.837
ATOM     40  O   UNL d   1      12.742 -19.251  16.589 -0.18 -1.17    -0.776    20.837
ATOM     41  H   UNL d   1      13.376 -19.750  16.056 +0.01 +0.14    +0.167    20.837
ATOM     42  C   UNL d   1       4.169 -10.036  16.387 -0.31 +0.00    +0.004    20.837
ATOM     43  C   UNL d   1       4.639  -9.359  17.443 -0.34 +0.00    +0.012    20.837
ATOM     44  C   UNL d   1      11.751 -11.872  18.072 -0.17 +0.00    +0.004    20.837
ATOM     45  C   UNL d   1      12.204 -12.582  19.110 -0.33 +0.01    +0.012    20.837
TER
ENDMDL
MODEL       74
USER    Run = 74
USER    Cluster Rank = 17
USER    Number of conformations in this cluster = 1
USER  
USER    RMSD from reference structure       = 25.219 A
USER  
USER    Estimated Free Energy of Binding    =   -6.93 kcal/mol  [=(1)+(2)+(3)-(4)]
USER    Estimated Inhibition Constant, Ki   =    8.38 uM (micromolar)  [Temperature = 298.15 K]
USER    
USER    (1) Final Intermolecular Energy     =   -9.91 kcal/mol
USER        vdW + Hbond + desolv Energy     =   -7.13 kcal/mol
USER        Electrostatic Energy            =   -2.78 kcal/mol
USER    (2) Final Total Internal Energy     =   -1.88 kcal/mol
USER    (3) Torsional Free Energy           =   +2.98 kcal/mol
USER    (4) Unbound System's Energy  [=(2)] =   -1.88 kcal/mol
USER    
USER    
USER  
USER    DPF = D:/Protein_go_brrr/autodock/final/1A3N/heme_Fe/dock.dpf
USER    NEWDPF move	heme_Fe_opt.pdbqt
USER    NEWDPF about	-0.174000 -0.001000 -0.047000
USER    NEWDPF tran0	16.582813 -18.273000 13.862072
USER    NEWDPF axisangle0	-0.714013 0.069860 0.696639 57.795519
USER    NEWDPF quaternion0	-0.345045 0.033760 0.336649 0.875483
USER    NEWDPF dihe0	-51.18 34.53 75.94 62.19 45.84 168.82 -41.75 -54.59 173.39 19.34 
USER  
USER                              x       y       z    vdW   Elec        q     RMS 
ATOM      1  C   UNL d   1      14.867 -17.400  14.572 -0.04 +0.04    +0.064    25.219
ATOM      2  C   UNL d   1      15.857 -21.305  11.708 -0.10 +0.01    +0.064    25.219
ATOM      3  C   UNL d   1      20.435 -21.112  13.147 -0.26 -0.01    +0.064    25.219
ATOM      4  C   UNL d   1      19.522 -17.268  15.844 -0.25 +0.01    +0.064    25.219
ATOM      5  C   UNL d   1      14.739 -18.465  13.568 -0.02 +0.03    +0.066    25.219
ATOM      6  C   UNL d   1      13.586 -18.742  12.851 -0.05 -0.01    -0.021    25.219
ATOM      7  C   UNL d   1      13.861 -19.829  12.059 -0.06 -0.01    -0.025    25.219
ATOM      8  C   UNL d   1      15.172 -20.174  12.323 -0.06 +0.02    +0.066    25.219
ATOM      9  C   UNL d   1      12.918 -20.478  11.093 -0.11 +0.02    +0.051    25.219
ATOM     10  C   UNL d   1      17.137 -21.625  11.902 -0.11 +0.00    +0.066    25.219
ATOM     11  C   UNL d   1      17.734 -22.779  11.389 -0.13 +0.00    -0.021    25.219
ATOM     12  C   UNL d   1      19.050 -22.756  11.804 -0.14 -0.00    +0.000    25.219
ATOM     13  C   UNL d   1      19.188 -21.581  12.563 -0.02 -0.00    +0.070    25.219
ATOM     14  C   UNL d   1      17.064 -23.886  10.599 -0.10 -0.00    +0.052    25.219
ATOM     15  C   UNL d   1      20.562 -20.009  13.922 -0.29 -0.00    +0.066    25.219
ATOM     16  C   UNL d   1      21.787 -19.540  14.378 -0.40 +0.00    -0.021    25.219
ATOM     17  C   UNL d   1      21.526 -18.433  15.159 -0.34 -0.00    +0.000    25.219
ATOM     18  C   UNL d   1      20.144 -18.256  15.164 -0.22 +0.00    +0.070    25.219
ATOM     19  C   UNL d   1      23.150 -20.122  14.113 -0.52 +0.01    +0.052    25.219
ATOM     20  C   UNL d   1      18.076 -17.013  15.823 -0.11 +0.02    +0.066    25.219
ATOM     21  C   UNL d   1      17.397 -16.128  16.672 -0.20 -0.01    -0.025    25.219
ATOM     22  C   UNL d   1      16.074 -16.172  16.284 -0.13 -0.01    -0.021    25.219
ATOM     23  C   UNL d   1      15.997 -17.082  15.223 -0.04 +0.03    +0.066    25.219
ATOM     24  C   UNL d   1      17.955 -15.284  17.795 -0.39 +0.02    +0.051    25.219
ATOM     25  N   UNL d   1      15.707 -19.337  13.234 -0.02 -0.07    -0.248    25.219
ATOM     26  N   UNL d   1      18.021 -20.896  12.630 -0.09 -0.02    -0.248    25.219
ATOM     27  N   UNL d   1      19.554 -19.197  14.368 -0.11 -0.02    -0.248    25.219
ATOM     28  N   UNL d   1      17.214 -17.626  14.976 -0.01 -0.07    -0.248    25.219
ATOM     29 FE   UNL d   1      17.618 -19.260  13.804 -0.03 +0.00    +0.000    25.219
ATOM     30  C   UNL d   1      12.295 -17.999  12.899 -0.09 +0.04    +0.052    25.219
ATOM     31  C   UNL d   1      11.309 -18.690  13.836 -0.07 +0.10    +0.115    25.219
ATOM     32  C   UNL d   1      10.573 -17.675  14.666 -0.08 +0.16    +0.139    25.219
ATOM     33  O   UNL d   1      10.106 -16.669  14.150 -0.32 -0.98    -0.650    25.219
ATOM     34  O   UNL d   1      10.422 -17.865  15.987 -0.01 -1.05    -0.776    25.219
ATOM     35  H   UNL d   1      10.670 -17.155  16.595 +0.01 +0.34    +0.167    25.219
ATOM     36  C   UNL d   1      14.943 -15.417  16.930 -0.14 +0.05    +0.052    25.219
ATOM     37  C   UNL d   1      14.348 -14.432  15.934 -0.14 +0.08    +0.115    25.219
ATOM     38  C   UNL d   1      12.871 -14.653  15.775 -0.07 +0.13    +0.139    25.219
ATOM     39  O   UNL d   1      12.177 -13.840  15.181 +0.05 -0.47    -0.650    25.219
ATOM     40  O   UNL d   1      12.297 -15.754  16.292 -0.45 -1.40    -0.776    25.219
ATOM     41  H   UNL d   1      11.554 -16.161  15.824 +0.02 +0.26    +0.167    25.219
ATOM     42  C   UNL d   1      20.065 -23.810  11.492 -0.18 -0.00    +0.004    25.219
ATOM     43  C   UNL d   1      21.215 -23.499  10.880 -0.26 -0.00    +0.012    25.219
ATOM     44  C   UNL d   1      22.534 -17.589  15.839 -0.49 +0.00    +0.004    25.219
ATOM     45  C   UNL d   1      22.691 -16.305  15.502 -0.55 +0.00    +0.012    25.219
TER
ENDMDL
MODEL       56
USER    Run = 56
USER    Cluster Rank = 18
USER    Number of conformations in this cluster = 1
USER  
USER    RMSD from reference structure       = 24.560 A
USER  
USER    Estimated Free Energy of Binding    =   -6.76 kcal/mol  [=(1)+(2)+(3)-(4)]
USER    Estimated Inhibition Constant, Ki   =   11.03 uM (micromolar)  [Temperature = 298.15 K]
USER    
USER    (1) Final Intermolecular Energy     =   -9.75 kcal/mol
USER        vdW + Hbond + desolv Energy     =   -6.32 kcal/mol
USER        Electrostatic Energy            =   -3.43 kcal/mol
USER    (2) Final Total Internal Energy     =   -1.83 kcal/mol
USER    (3) Torsional Free Energy           =   +2.98 kcal/mol
USER    (4) Unbound System's Energy  [=(2)] =   -1.83 kcal/mol
USER    
USER    
USER  
USER    DPF = D:/Protein_go_brrr/autodock/final/1A3N/heme_Fe/dock.dpf
USER    NEWDPF move	heme_Fe_opt.pdbqt
USER    NEWDPF about	-0.174000 -0.001000 -0.047000
USER    NEWDPF tran0	6.950125 -14.326810 20.552307
USER    NEWDPF axisangle0	-0.740284 -0.160533 -0.652846 143.944679
USER    NEWDPF quaternion0	-0.703942 -0.152652 -0.620796 0.309476
USER    NEWDPF dihe0	134.26 162.40 7.62 -156.49 135.54 121.12 -53.55 128.49 -177.12 -169.88 
USER  
USER                              x       y       z    vdW   Elec        q     RMS 
ATOM      1  C   UNL d   1       7.114 -15.600  18.951 -0.15 +0.04    +0.064    24.560
ATOM      2  C   UNL d   1       8.156 -10.831  19.726 -0.05 +0.02    +0.064    24.560
ATOM      3  C   UNL d   1       7.782 -11.589  24.454 -0.14 -0.02    +0.064    24.560
ATOM      4  C   UNL d   1       6.669 -16.184  23.722 -0.19 +0.02    +0.064    24.560
ATOM      5  C   UNL d   1       7.359 -14.168  18.727 -0.10 +0.03    +0.066    24.560
ATOM      6  C   UNL d   1       7.416 -13.561  17.484 -0.05 -0.01    -0.021    24.560
ATOM      7  C   UNL d   1       7.709 -12.237  17.700 -0.04 -0.01    -0.025    24.560
ATOM      8  C   UNL d   1       7.820 -12.087  19.069 -0.06 +0.02    +0.066    24.560
ATOM      9  C   UNL d   1       7.853 -11.181  16.647 -0.07 +0.02    +0.051    24.560
ATOM     10  C   UNL d   1       8.213 -10.646  21.046 -0.10 +0.01    +0.066    24.560
ATOM     11  C   UNL d   1       8.649  -9.462  21.645 -0.15 -0.00    -0.021    24.560
ATOM     12  C   UNL d   1       8.566  -9.660  23.009 -0.32 -0.00    +0.000    24.560
ATOM     13  C   UNL d   1       8.088 -10.972  23.173 -0.25 -0.00    +0.070    24.560
ATOM     14  C   UNL d   1       9.183  -8.224  20.952 -0.12 +0.01    +0.052    24.560
ATOM     15  C   UNL d   1       7.371 -12.868  24.620 -0.24 -0.00    +0.066    24.560
ATOM     16  C   UNL d   1       6.994 -13.390  25.851 -0.28 -0.00    -0.021    24.560
ATOM     17  C   UNL d   1       6.675 -14.716  25.643 -0.18 +0.00    +0.000    24.560
ATOM     18  C   UNL d   1       6.870 -14.974  24.288 -0.17 +0.02    +0.070    24.560
ATOM     19  C   UNL d   1       6.958 -12.679  27.178 -0.39 +0.00    +0.052    24.560
ATOM     20  C   UNL d   1       6.804 -16.476  22.290 -0.18 +0.02    +0.066    24.560
ATOM     21  C   UNL d   1       6.795 -17.758  21.721 -0.15 -0.01    -0.025    24.560
ATOM     22  C   UNL d   1       6.910 -17.567  20.360 -0.14 -0.01    -0.021    24.560
ATOM     23  C   UNL d   1       6.991 -16.185  20.153 -0.16 +0.04    +0.066    24.560
ATOM     24  C   UNL d   1       6.688 -19.097  22.413 -0.09 +0.01    +0.051    24.560
ATOM     25  N   UNL d   1       7.597 -13.262  19.691 -0.08 -0.11    -0.248    24.560
ATOM     26  N   UNL d   1       7.880 -11.576  21.978 -0.10 -0.04    -0.248    24.560
ATOM     27  N   UNL d   1       7.255 -13.828  23.650 -0.14 -0.03    -0.248    24.560
ATOM     28  N   UNL d   1       6.971 -15.527  21.338 -0.15 -0.11    -0.248    24.560
ATOM     29 FE   UNL d   1       7.425 -13.553  21.659 -0.04 +0.00    +0.000    24.560
ATOM     30  C   UNL d   1       7.182 -14.199  16.157 -0.04 +0.03    +0.052    24.560
ATOM     31  C   UNL d   1       8.475 -14.792  15.608 -0.03 +0.10    +0.115    24.560
ATOM     32  C   UNL d   1       8.279 -16.239  15.249 -0.04 +0.14    +0.139    24.560
ATOM     33  O   UNL d   1       8.713 -16.684  14.195 -0.35 -1.12    -0.650    24.560
ATOM     34  O   UNL d   1       7.622 -17.059  16.086 +0.06 -0.58    -0.776    24.560
ATOM     35  H   UNL d   1       7.836 -17.036  17.029 +0.03 +0.12    +0.167    24.560
ATOM     36  C   UNL d   1       6.987 -18.656  19.322 -0.07 +0.02    +0.052    24.560
ATOM     37  C   UNL d   1       8.348 -19.333  19.389 -0.07 +0.07    +0.115    24.560
ATOM     38  C   UNL d   1       9.457 -18.322  19.318 -0.03 +0.19    +0.139    24.560
ATOM     39  O   UNL d   1      10.276 -18.227  20.220 -0.25 -1.20    -0.650    24.560
ATOM     40  O   UNL d   1       9.554 -17.506  18.253 -0.04 -1.31    -0.776    24.560
ATOM     41  H   UNL d   1       9.086 -17.739  17.438 +0.02 +0.19    +0.167    24.560
ATOM     42  C   UNL d   1       8.946  -8.651  24.045 -0.43 -0.00    +0.004    24.560
ATOM     43  C   UNL d   1       8.399  -7.429  24.050 -0.53 -0.00    +0.012    24.560
ATOM     44  C   UNL d   1       6.196 -15.669  26.670 -0.14 +0.00    +0.004    24.560
ATOM     45  C   UNL d   1       7.021 -16.581  27.195 -0.15 +0.01    +0.012    24.560
TER
ENDMDL
MODEL       31
USER    Run = 31
USER    Cluster Rank = 19
USER    Number of conformations in this cluster = 1
USER  
USER    RMSD from reference structure       = 22.149 A
USER  
USER    Estimated Free Energy of Binding    =   -5.97 kcal/mol  [=(1)+(2)+(3)-(4)]
USER    Estimated Inhibition Constant, Ki   =   41.74 uM (micromolar)  [Temperature = 298.15 K]
USER    
USER    (1) Final Intermolecular Energy     =   -8.96 kcal/mol
USER        vdW + Hbond + desolv Energy     =   -6.53 kcal/mol
USER        Electrostatic Energy            =   -2.43 kcal/mol
USER    (2) Final Total Internal Energy     =   -2.40 kcal/mol
USER    (3) Torsional Free Energy           =   +2.98 kcal/mol
USER    (4) Unbound System's Energy  [=(2)] =   -2.40 kcal/mol
USER    
USER    
USER  
USER    DPF = D:/Protein_go_brrr/autodock/final/1A3N/heme_Fe/dock.dpf
USER    NEWDPF move	heme_Fe_opt.pdbqt
USER    NEWDPF about	-0.174000 -0.001000 -0.047000
USER    NEWDPF tran0	17.368884 -15.992732 11.202732
USER    NEWDPF axisangle0	-0.751022 0.108992 0.651219 -134.266044
USER    NEWDPF quaternion0	-0.691999 0.100427 0.600040 -0.388593
USER    NEWDPF dihe0	-56.17 -94.09 19.66 -118.03 0.82 -149.48 -59.35 17.30 -162.08 151.68 
USER  
USER                              x       y       z    vdW   Elec        q     RMS 
ATOM      1  C   UNL d   1      16.490 -16.251  13.039 -0.06 +0.02    +0.064    22.149
ATOM      2  C   UNL d   1      19.597 -12.929  11.104 -0.19 +0.01    +0.064    22.149
ATOM      3  C   UNL d   1      18.507 -14.565   6.722 -0.16 +0.01    +0.064    22.149
ATOM      4  C   UNL d   1      15.575 -17.857   8.580 -0.19 +0.02    +0.064    22.149
ATOM      5  C   UNL d   1      17.529 -15.220  12.906 -0.07 +0.02    +0.066    22.149
ATOM      6  C   UNL d   1      18.167 -14.599  13.967 -0.16 -0.01    -0.021    22.149
ATOM      7  C   UNL d   1      19.027 -13.674  13.429 -0.25 -0.00    -0.025    22.149
ATOM      8  C   UNL d   1      18.881 -13.767  12.058 -0.15 +0.01    +0.066    22.149
ATOM      9  C   UNL d   1      19.946 -12.773  14.195 -0.04 +0.00    +0.051    22.149
ATOM     10  C   UNL d   1      19.517 -13.037   9.777 -0.16 +0.01    +0.066    22.149
ATOM     11  C   UNL d   1      20.127 -12.147   8.889 -0.17 -0.00    -0.021    22.149
ATOM     12  C   UNL d   1      19.813 -12.586   7.619 -0.16 +0.00    +0.000    22.149
ATOM     13  C   UNL d   1      19.014 -13.729   7.799 -0.13 +0.01    +0.070    22.149
ATOM     14  C   UNL d   1      20.912 -10.898   9.235 -0.29 +0.00    +0.052    22.149
ATOM     15  C   UNL d   1      17.695 -15.635   6.888 -0.17 +0.01    +0.066    22.149
ATOM     16  C   UNL d   1      17.313 -16.467   5.843 -0.22 -0.00    -0.021    22.149
ATOM     17  C   UNL d   1      16.464 -17.415   6.376 -0.28 +0.00    +0.000    22.149
ATOM     18  C   UNL d   1      16.345 -17.136   7.735 -0.26 +0.01    +0.070    22.149
ATOM     19  C   UNL d   1      17.708 -16.361   4.394 -0.21 -0.00    +0.052    22.149
ATOM     20  C   UNL d   1      15.473 -17.631  10.026 -0.20 +0.02    +0.066    22.149
ATOM     21  C   UNL d   1      14.535 -18.234  10.876 -0.16 -0.01    -0.025    22.149
ATOM     22  C   UNL d   1      14.822 -17.772  12.144 -0.07 -0.01    -0.021    22.149
ATOM     23  C   UNL d   1      15.914 -16.905  12.018 -0.07 +0.02    +0.066    22.149
ATOM     24  C   UNL d   1      13.420 -19.191  10.523 -0.17 +0.03    +0.051    22.149
ATOM     25  N   UNL d   1      17.975 -14.715  11.743 -0.05 -0.04    -0.248    22.149
ATOM     26  N   UNL d   1      18.826 -13.999   9.114 -0.09 -0.05    -0.248    22.149
ATOM     27  N   UNL d   1      17.135 -16.069   8.059 -0.14 -0.05    -0.248    22.149
ATOM     28  N   UNL d   1      16.278 -16.788  10.718 -0.11 -0.06    -0.248    22.149
ATOM     29 FE   UNL d   1      17.551 -15.395   9.915 -0.04 +0.00    +0.000    22.149
ATOM     30  C   UNL d   1      17.986 -14.883  15.419 -0.23 +0.02    +0.052    22.149
ATOM     31  C   UNL d   1      16.642 -14.357  15.909 -0.21 +0.06    +0.115    22.149
ATOM     32  C   UNL d   1      15.810 -15.477  16.468 -0.16 +0.09    +0.139    22.149
ATOM     33  O   UNL d   1      16.243 -16.621  16.497 +0.05 -0.38    -0.650    22.149
ATOM     34  O   UNL d   1      14.577 -15.231  16.943 +0.07 -0.78    -0.776    22.149
ATOM     35  H   UNL d   1      13.827 -15.719  16.576 +0.03 +0.22    +0.167    22.149
ATOM     36  C   UNL d   1      14.057 -18.108  13.397 -0.04 +0.03    +0.052    22.149
ATOM     37  C   UNL d   1      13.321 -16.873  13.896 -0.04 +0.08    +0.115    22.149
ATOM     38  C   UNL d   1      12.884 -17.046  15.323 -0.05 +0.17    +0.139    22.149
ATOM     39  O   UNL d   1      11.874 -16.499  15.739 -0.44 -1.04    -0.650    22.149
ATOM     40  O   UNL d   1      13.611 -17.809  16.160 +0.03 -1.10    -0.776    22.149
ATOM     41  H   UNL d   1      14.361 -17.412  16.626 +0.03 +0.22    +0.167    22.149
ATOM     42  C   UNL d   1      20.250 -11.923   6.351 -0.25 +0.00    +0.004    22.149
ATOM     43  C   UNL d   1      21.540 -11.908   5.990 -0.33 +0.00    +0.012    22.149
ATOM     44  C   UNL d   1      15.825 -18.527   5.636 -0.21 +0.00    +0.004    22.149
ATOM     45  C   UNL d   1      14.942 -18.284   4.662 -0.36 +0.00    +0.012    22.149
TER
ENDMDL
MODEL        9
USER    Run = 9
USER    Cluster Rank = 20
USER    Number of conformations in this cluster = 1
USER  
USER    RMSD from reference structure       = 21.800 A
USER  
USER    Estimated Free Energy of Binding    =   -5.52 kcal/mol  [=(1)+(2)+(3)-(4)]
USER    Estimated Inhibition Constant, Ki   =   89.43 uM (micromolar)  [Temperature = 298.15 K]
USER    
USER    (1) Final Intermolecular Energy     =   -8.51 kcal/mol
USER        vdW + Hbond + desolv Energy     =   -5.48 kcal/mol
USER        Electrostatic Energy            =   -3.03 kcal/mol
USER    (2) Final Total Internal Energy     =   -2.02 kcal/mol
USER    (3) Torsional Free Energy           =   +2.98 kcal/mol
USER    (4) Unbound System's Energy  [=(2)] =   -2.02 kcal/mol
USER    
USER    
USER  
USER    DPF = D:/Protein_go_brrr/autodock/final/1A3N/heme_Fe/dock.dpf
USER    NEWDPF move	heme_Fe_opt.pdbqt
USER    NEWDPF about	-0.174000 -0.001000 -0.047000
USER    NEWDPF tran0	14.665718 -18.649844 10.204606
USER    NEWDPF axisangle0	0.762200 -0.135335 -0.633037 156.443190
USER    NEWDPF quaternion0	0.746151 -0.132485 -0.619708 0.204127
USER    NEWDPF dihe0	82.17 -34.61 160.64 -150.99 154.04 138.37 -43.82 63.72 -164.32 174.34 
USER  
USER                              x       y       z    vdW   Elec        q     RMS 
ATOM      1  C   UNL d   1      13.839 -18.458  12.073 -0.10 +0.03    +0.064    21.800
ATOM      2  C   UNL d   1      16.225 -15.416   8.994 -0.15 +0.01    +0.064    21.800
ATOM      3  C   UNL d   1      15.534 -18.577   5.445 -0.29 +0.01    +0.064    21.800
ATOM      4  C   UNL d   1      13.314 -21.583   8.432 -0.14 +0.02    +0.064    21.800
ATOM      5  C   UNL d   1      14.648 -17.346  11.555 -0.10 +0.03    +0.066    21.800
ATOM      6  C   UNL d   1      15.136 -16.300  12.320 -0.04 -0.01    -0.021    21.800
ATOM      7  C   UNL d   1      15.795 -15.453  11.463 -0.06 -0.01    -0.025    21.800
ATOM      8  C   UNL d   1      15.685 -16.017  10.207 -0.13 +0.02    +0.066    21.800
ATOM      9  C   UNL d   1      16.504 -14.189  11.843 -0.06 +0.01    +0.051    21.800
ATOM     10  C   UNL d   1      16.182 -15.966   7.779 -0.22 +0.01    +0.066    21.800
ATOM     11  C   UNL d   1      16.607 -15.315   6.618 -0.21 -0.00    -0.021    21.800
ATOM     12  C   UNL d   1      16.402 -16.200   5.578 -0.26 -0.00    +0.000    21.800
ATOM     13  C   UNL d   1      15.851 -17.353   6.163 -0.28 +0.01    +0.070    21.800
ATOM     14  C   UNL d   1      17.118 -13.894   6.496 -0.16 +0.00    +0.052    21.800
ATOM     15  C   UNL d   1      14.955 -19.671   5.994 -0.01 +0.02    +0.066    21.800
ATOM     16  C   UNL d   1      14.760 -20.857   5.298 -0.16 -0.01    -0.021    21.800
ATOM     17  C   UNL d   1      14.117 -21.724   6.156 -0.14 +0.00    +0.000    21.800
ATOM     18  C   UNL d   1      13.930 -21.044   7.357 -0.14 +0.03    +0.070    21.800
ATOM     19  C   UNL d   1      15.140 -21.158   3.873 -0.13 +0.01    +0.052    21.800
ATOM     20  C   UNL d   1      13.154 -20.920   9.732 -0.13 +0.02    +0.066    21.800
ATOM     21  C   UNL d   1      12.350 -21.382  10.783 -0.07 -0.01    -0.025    21.800
ATOM     22  C   UNL d   1      12.524 -20.483  11.815 -0.07 -0.01    -0.021    21.800
ATOM     23  C   UNL d   1      13.419 -19.510  11.353 -0.11 +0.03    +0.066    21.800
ATOM     24  C   UNL d   1      11.457 -22.600  10.823 -0.03 +0.02    +0.051    21.800
ATOM     25  N   UNL d   1      14.994 -17.173  10.267 -0.12 -0.10    -0.248    21.800
ATOM     26  N   UNL d   1      15.708 -17.208   7.503 -0.20 -0.05    -0.248    21.800
ATOM     27  N   UNL d   1      14.484 -19.797   7.273 -0.03 -0.10    -0.248    21.800
ATOM     28  N   UNL d   1      13.765 -19.757  10.066 -0.12 -0.11    -0.248    21.800
ATOM     29 FE   UNL d   1      14.735 -18.484   8.784 -0.06 +0.00    +0.000    21.800
ATOM     30  C   UNL d   1      15.003 -16.121  13.794 -0.03 +0.02    +0.052    21.800
ATOM     31  C   UNL d   1      13.589 -15.682  14.159 -0.03 +0.08    +0.115    21.800
ATOM     32  C   UNL d   1      13.094 -16.445  15.356 -0.05 +0.16    +0.139    21.800
ATOM     33  O   UNL d   1      12.242 -15.966  16.092 -0.51 -1.14    -0.650    21.800
ATOM     34  O   UNL d   1      13.586 -17.665  15.630 -0.00 -0.88    -0.776    21.800
ATOM     35  H   UNL d   1      13.089 -18.445  15.349 +0.01 +0.17    +0.167    21.800
ATOM     36  C   UNL d   1      11.831 -20.532  13.151 -0.04 +0.03    +0.052    21.800
ATOM     37  C   UNL d   1      10.514 -19.775  13.074 -0.08 +0.09    +0.115    21.800
ATOM     38  C   UNL d   1      10.517 -18.593  14.002 -0.07 +0.14    +0.139    21.800
ATOM     39  O   UNL d   1      10.050 -17.520  13.649 -0.12 -1.03    -0.650    21.800
ATOM     40  O   UNL d   1      11.041 -18.709  15.235 +0.02 -0.79    -0.776    21.800
ATOM     41  H   UNL d   1      11.502 -17.952  15.623 +0.01 +0.23    +0.167    21.800
ATOM     42  C   UNL d   1      16.708 -15.917   4.142 -0.34 -0.00    +0.004    21.800
ATOM     43  C   UNL d   1      16.016 -16.510   3.160 -0.39 -0.00    +0.012    21.800
ATOM     44  C   UNL d   1      13.725 -23.119   5.853 -0.07 +0.00    +0.004    21.800
ATOM     45  C   UNL d   1      12.481 -23.411   5.461 -0.06 +0.00    +0.012    21.800
TER
ENDMDL


AVSFLD: # AVS field file
AVSFLD: #
AVSFLD: # Created by AutoDock
AVSFLD: #
AVSFLD: ndim=2           # number of dimensions in the field
AVSFLD: nspace=1         # number of physical coordinates
AVSFLD: veclen=7         # vector size
AVSFLD: dim1=45          # atoms
AVSFLD: dim2=20          # conformations
AVSFLD: data=Real       # data type (byte,integer,Real,double)
AVSFLD: field=uniform    # field coordinate layout
AVSFLD: label= x y z vdW Elec q RMS
AVSFLD: variable 1 file = D:/Protein_go_brrr/autodock/final/1A3N/heme_Fe/dock.dlg.pdb filetype = ascii offset = 5 stride = 12
AVSFLD: variable 2 file = D:/Protein_go_brrr/autodock/final/1A3N/heme_Fe/dock.dlg.pdb filetype = ascii offset = 6 stride = 12
AVSFLD: variable 3 file = D:/Protein_go_brrr/autodock/final/1A3N/heme_Fe/dock.dlg.pdb filetype = ascii offset = 7 stride = 12
AVSFLD: variable 4 file = D:/Protein_go_brrr/autodock/final/1A3N/heme_Fe/dock.dlg.pdb filetype = ascii offset = 8 stride = 12
AVSFLD: variable 5 file = D:/Protein_go_brrr/autodock/final/1A3N/heme_Fe/dock.dlg.pdb filetype = ascii offset = 9 stride = 12
AVSFLD: variable 6 file = D:/Protein_go_brrr/autodock/final/1A3N/heme_Fe/dock.dlg.pdb filetype = ascii offset = 10 stride = 12
AVSFLD: variable 7 file = D:/Protein_go_brrr/autodock/final/1A3N/heme_Fe/dock.dlg.pdb filetype = ascii offset = 11 stride = 12
AVSFLD: # end of file

>>> Closing the docking parameter file (DPF)...
This docking finished at:			8:49 01" a.m., 09/26/2025


________________________________________________________________________________

D:/autodockScripts/autodock4.exe: Successful Completion on "ACER"

Real= 7h 15m 46.47s,  CPU= 2m 25.86s,  System= 24.75s
________________________________________________________________________________

