          AutoDock 4.2 Release 4.2.6   
         (C) 1989-2012 The Scripps Research Institute
        AutoDock comes with ABSOLUTELY NO WARRANTY.
        AutoDock is free software, and you are welcome
        to redistribute it under certain conditions;
        for details type 'autodock4 -C'

                     main.cc  $Revision: 1.213 $

                   Compiled on Jul 18 2014 at 15:34:58


This file was created at:			3:49 12" p.m., 10/18/2025
                   on host:		"ACER"
Current Working Directory = "D:\Protein_go_brrr\autodock\final\mut_Y35F\heme_O2"

      ________________________________________________________________

                   SETTING UP DEFAULT PARAMETER LIBRARY
      ________________________________________________________________


Random number generator was seeded with values 52596, 1760795352.
Docking parameter file (DPF) used for this docking:		D:/Protein_go_brrr/autodock/final/mut_Y35F/heme_O2/dock.dpf
DPF> autodock_parameter_version 4.2       # used by autodock to validate parameter set

	Autodock parameter version 4.2.
DPF> outlev 1                             # diagnostic output level

Output Level = 1  ADT-COMPATIBLE OUTPUT DURING DOCKING.
DPF> intelec                              # calculate internal electrostatics

Electrostatic energies will be calculated for all non-bonds between moving atoms.
DPF> seed pid time                        # seeds for random generator

Random number generator was seeded with values 52596, 1760795352.
DPF> ligand_types A C OA N Fe HD          # atoms types in ligand

DPF> fld mut_Y35F_m0.maps.fld             # grid_data_file

Opening Grid Map Dimensions file:		mut_Y35F_m0.maps.fld
Grid Point Spacing =				0.664 Angstroms

Even Number of User-specified Grid Points =	126 x-points
						126 y-points
						126 z-points

Coordinates of Central Grid Point of Maps =	(0.620, 0.306, 0.503)
Macromolecule file used to create Grid Maps =	mut_Y35F_m0.pdbqt
Grid Parameter file used to create Grid Maps =	D:/Protein_go_brrr/autodock/final/mut_Y35F/heme_O2/grid.gpf
Minimum coordinates in grid = (-41.212, -41.526, -41.329)
Maximum coordinates in grid = (42.452, 42.138, 42.335)

DPF> map mut_Y35F_m0.A.map                # atom-specific affinity map

DPF> map mut_Y35F_m0.C.map                # atom-specific affinity map

DPF> map mut_Y35F_m0.OA.map               # atom-specific affinity map

DPF> map mut_Y35F_m0.N.map                # atom-specific affinity map

DPF> map mut_Y35F_m0.Fe.map               # atom-specific affinity map

DPF> map mut_Y35F_m0.HD.map               # atom-specific affinity map

DPF> elecmap mut_Y35F_m0.e.map            # electrostatics map

DPF> desolvmap mut_Y35F_m0.d.map          # desolvation map

DPF> move heme_O2_opt.pdbqt               # small molecule

1,4-interactions will be _ignored_ in the non-bonded internal energy calculation.

Ligand PDBQT file = "heme_O2_opt.pdbqt"

INPUT LIGAND PDBQT FILE:
________________________

INPUT-LIGAND-PDBQT: REMARK  10 active torsions:
INPUT-LIGAND-PDBQT: REMARK  status: ('A' for Active; 'I' for Inactive)
INPUT-LIGAND-PDBQT: REMARK    1  A    between atoms: C_6  and  C_10 
INPUT-LIGAND-PDBQT: REMARK    2  A    between atoms: C_10  and  C_11 
INPUT-LIGAND-PDBQT: REMARK    3  A    between atoms: C_11  and  C_12 
INPUT-LIGAND-PDBQT: REMARK    4  A    between atoms: C_12  and  O_14 
INPUT-LIGAND-PDBQT: REMARK    5  A    between atoms: C_17  and  C_20 
INPUT-LIGAND-PDBQT: REMARK    6  A    between atoms: C_24  and  C_27 
INPUT-LIGAND-PDBQT: REMARK    7  A    between atoms: C_31  and  C_34 
INPUT-LIGAND-PDBQT: REMARK    8  A    between atoms: C_34  and  C_35 
INPUT-LIGAND-PDBQT: REMARK    9  A    between atoms: C_35  and  C_36 
INPUT-LIGAND-PDBQT: REMARK   10  A    between atoms: C_36  and  O_38 
INPUT-LIGAND-PDBQT: ROOT
INPUT-LIGAND-PDBQT: ATOM      1  C   UNL d   1       6.417  35.070  -1.470  0.00  0.00     0.064 A 
INPUT-LIGAND-PDBQT: ATOM      2  C   UNL d   1       7.592  32.343   2.237  0.00  0.00     0.064 A 
INPUT-LIGAND-PDBQT: ATOM      3  C   UNL d   1      12.269  32.904   1.285  0.00  0.00     0.064 C 
INPUT-LIGAND-PDBQT: ATOM      4  C   UNL d   1      11.084  36.099  -2.244  0.00  0.00     0.064 A 
INPUT-LIGAND-PDBQT: ATOM      5  C   UNL d   1       6.355  34.284  -0.383  0.00  0.00     0.066 A 
INPUT-LIGAND-PDBQT: ATOM      6  C   UNL d   1       5.162  33.858   0.208  0.00  0.00    -0.021 A 
INPUT-LIGAND-PDBQT: ATOM      7  C   UNL d   1       5.501  33.104   1.307  0.00  0.00    -0.025 A 
INPUT-LIGAND-PDBQT: ATOM      8  C   UNL d   1       6.892  33.050   1.329  0.00  0.00     0.066 A 
INPUT-LIGAND-PDBQT: ATOM      9  C   UNL d   1       4.513  32.505   2.284  0.00  0.00     0.051 C 
INPUT-LIGAND-PDBQT: ATOM     10  C   UNL d   1       9.050  32.230   2.297  0.00  0.00     0.066 A 
INPUT-LIGAND-PDBQT: ATOM     11  C   UNL d   1       9.719  31.353   3.158  0.00  0.00    -0.021 A 
INPUT-LIGAND-PDBQT: ATOM     12  C   UNL d   1      11.068  31.487   2.886  0.00  0.00     0.000 A 
INPUT-LIGAND-PDBQT: ATOM     13  C   UNL d   1      11.148  32.469   1.860  0.00  0.00     0.070 A 
INPUT-LIGAND-PDBQT: ATOM     14  C   UNL d   1       9.096  30.407   4.178  0.00  0.00     0.052 C 
INPUT-LIGAND-PDBQT: ATOM     15  C   UNL d   1      12.395  33.921   0.269  0.00  0.00     0.066 A 
INPUT-LIGAND-PDBQT: ATOM     16  C   UNL d   1      13.607  34.449  -0.175  0.00  0.00    -0.021 A 
INPUT-LIGAND-PDBQT: ATOM     17  C   UNL d   1      13.294  35.363  -1.181  0.00  0.00     0.000 A 
INPUT-LIGAND-PDBQT: ATOM     18  C   UNL d   1      11.896  35.322  -1.278  0.00  0.00     0.070 A 
INPUT-LIGAND-PDBQT: ATOM     19  C   UNL d   1      14.937  34.079   0.432  0.00  0.00     0.052 C 
INPUT-LIGAND-PDBQT: ATOM     20  C   UNL d   1       9.740  36.116  -2.335  0.00  0.00     0.066 A 
INPUT-LIGAND-PDBQT: ATOM     21  C   UNL d   1       9.031  36.855  -3.278  0.00  0.00    -0.025 A 
INPUT-LIGAND-PDBQT: ATOM     22  C   UNL d   1       7.701  36.553  -3.090  0.00  0.00    -0.021 A 
INPUT-LIGAND-PDBQT: ATOM     23  C   UNL d   1       7.646  35.651  -2.023  0.00  0.00     0.066 A 
INPUT-LIGAND-PDBQT: ATOM     24  C   UNL d   1       9.594  37.804  -4.304  0.00  0.00     0.051 C 
INPUT-LIGAND-PDBQT: ATOM     25  N   UNL d   1       7.418  33.831   0.326  0.00  0.00    -0.248 N 
INPUT-LIGAND-PDBQT: ATOM     26  N   UNL d   1       9.916  32.919   1.511  0.00  0.00    -0.248 N 
INPUT-LIGAND-PDBQT: ATOM     27  N   UNL d   1      11.363  34.498  -0.340  0.00  0.00    -0.248 N 
INPUT-LIGAND-PDBQT: ATOM     28  N   UNL d   1       8.884  35.423  -1.538  0.00  0.00    -0.248 N 
INPUT-LIGAND-PDBQT: ATOM     29 FE   UNL d   1       9.399  34.181  -0.025  0.00  0.00     0.000 Fe
INPUT-LIGAND-PDBQT: ATOM     30  O   UNL d   1       8.866  34.841   1.280  0.00  0.00     0.000 OA
INPUT-LIGAND-PDBQT: ATOM     31  O   UNL d   1       9.881  35.626   0.366  0.00  0.00     0.000 OA
INPUT-LIGAND-PDBQT: ENDROOT
INPUT-LIGAND-PDBQT: BRANCH   6  32
INPUT-LIGAND-PDBQT: ATOM     32  C   UNL d   1       3.756  34.255  -0.161  0.00  0.00     0.052 C 
INPUT-LIGAND-PDBQT: BRANCH  32  33
INPUT-LIGAND-PDBQT: ATOM     33  C   UNL d   1       3.190  33.429  -1.312  0.00  0.00     0.115 C 
INPUT-LIGAND-PDBQT: BRANCH  33  34
INPUT-LIGAND-PDBQT: ATOM     34  C   UNL d   1       1.764  33.798  -1.638  0.00  0.00     0.139 C 
INPUT-LIGAND-PDBQT: ATOM     35  O   UNL d   1       1.015  32.956  -2.107  0.00  0.00    -0.650 OA
INPUT-LIGAND-PDBQT: BRANCH  34  36
INPUT-LIGAND-PDBQT: ATOM     36  O   UNL d   1       1.301  35.051  -1.449  0.00  0.00    -0.776 OA
INPUT-LIGAND-PDBQT: ATOM     37  H   UNL d   1       1.861  35.756  -1.104  0.00  0.00     0.167 HD
INPUT-LIGAND-PDBQT: ENDBRANCH  34  36
INPUT-LIGAND-PDBQT: ENDBRANCH  33  34
INPUT-LIGAND-PDBQT: ENDBRANCH  32  33
INPUT-LIGAND-PDBQT: ENDBRANCH   6  32
INPUT-LIGAND-PDBQT: BRANCH  22  38
INPUT-LIGAND-PDBQT: ATOM     38  C   UNL d   1       6.548  37.151  -3.854  0.00  0.00     0.052 C 
INPUT-LIGAND-PDBQT: BRANCH  38  39
INPUT-LIGAND-PDBQT: ATOM     39  C   UNL d   1       6.010  36.208  -4.928  0.00  0.00     0.115 C 
INPUT-LIGAND-PDBQT: BRANCH  39  40
INPUT-LIGAND-PDBQT: ATOM     40  C   UNL d   1       4.838  36.794  -5.675  0.00  0.00     0.139 C 
INPUT-LIGAND-PDBQT: ATOM     41  O   UNL d   1       4.700  36.561  -6.865  0.00  0.00    -0.650 OA
INPUT-LIGAND-PDBQT: BRANCH  40  42
INPUT-LIGAND-PDBQT: ATOM     42  O   UNL d   1       3.907  37.532  -5.040  0.00  0.00    -0.776 OA
INPUT-LIGAND-PDBQT: ATOM     43  H   UNL d   1       3.982  37.740  -4.101  0.00  0.00     0.167 HD
INPUT-LIGAND-PDBQT: ENDBRANCH  40  42
INPUT-LIGAND-PDBQT: ENDBRANCH  39  40
INPUT-LIGAND-PDBQT: ENDBRANCH  38  39
INPUT-LIGAND-PDBQT: ENDBRANCH  22  38
INPUT-LIGAND-PDBQT: BRANCH  12  44
INPUT-LIGAND-PDBQT: ATOM     44  C   UNL d   1      12.120  30.683   3.621  0.00  0.00     0.004 C 
INPUT-LIGAND-PDBQT: ATOM     45  C   UNL d   1      13.434  30.659   3.401  0.00  0.00     0.012 C 
INPUT-LIGAND-PDBQT: ENDBRANCH  12  44
INPUT-LIGAND-PDBQT: BRANCH  17  46
INPUT-LIGAND-PDBQT: ATOM     46  C   UNL d   1      14.171  36.282  -1.989  0.00  0.00     0.004 C 
INPUT-LIGAND-PDBQT: ATOM     47  C   UNL d   1      15.480  36.522  -1.839  0.00  0.00     0.012 C 
INPUT-LIGAND-PDBQT: ENDBRANCH  17  46
INPUT-LIGAND-PDBQT: TORSDOF 10
________________________________________________________________________________

Total charge on ligand                               =	-2.002 e
REMARK  10 active torsions:
REMARK  status: ('A' for Active; 'I' for Inactive)
REMARK    1  A    between atoms: C_6  and  C_10 
REMARK    2  A    between atoms: C_10  and  C_11 
REMARK    3  A    between atoms: C_11  and  C_12 
REMARK    4  A    between atoms: C_12  and  O_14 
REMARK    5  A    between atoms: C_17  and  C_20 
REMARK    6  A    between atoms: C_24  and  C_27 
REMARK    7  A    between atoms: C_31  and  C_34 
REMARK    8  A    between atoms: C_34  and  C_35 
REMARK    9  A    between atoms: C_35  and  C_36 
REMARK   10  A    between atoms: C_36  and  O_38 


Number of Rotatable Bonds in Small Molecule =	10 torsions
Number of atoms in ligand:  47

Number of non-hydrogen atoms in ligand:  45

Number of vibrational degrees of freedom of ligand:  135


Number of torsional degrees of freedom = 10
Estimated loss of torsional free energy upon binding = +2.9830 kcal/mol


DPF> about 8.287 34.468 -0.670            # small molecule center

Small molecule center of rotation =	(+8.287, +34.468, -0.670)

DPF> tran0 random                         # initial coordinates/A or random

Initial translation =			(-23.437, 11.814, 13.657) Angstroms
DPF> quaternion0 random                   # initial orientation

Each run will begin with a new, random initial orientation.
Initial quaternion,  (x,y,z,w) =	( -0.324, -0.819, 0.299, 0.368 ),
DPF> dihe0 random                         # initial dihedrals (relative) or random

DPF> torsdof 10                            # torsional degrees of freedom

Number of torsional degrees of freedom = 10
Free energy coefficient for torsional degrees of freedom = 0.2983, the factory default value.

Estimated loss of torsional free energy upon binding = +2.9830 kcal/mol

DPF> rmstol 2.0                           # cluster_tolerance/A

Maximum RMS tolerance for conformational cluster analysis = 2.00 Angstroms
DPF> extnrg 1000.0                        # external grid energy

External grid energy (beyond grid map walls) = 1000.00

DPF> e0max 0.0 10000                      # max initial energy; max number of retries

Using user-specified maximum number of retries for simanneal initialization, 10000 retries.
If the simanneal initial energy is greater than e0max, 0.000,
then a new, random initial state will be created.

DPF> ga_pop_size 150                      # number of individuals in population

A population of 150 individuals will be used
DPF> ga_num_evals 25000000                # maximum number of energy evaluations

There will be at most 25000000 function evaluations used.
DPF> ga_num_generations 27000             # maximum number of generations

The GA will run for at most 27000 generations.
DPF> ga_elitism 1                         # number of top individuals to survive to next generation

The 1 best will be preserved each GA generation.
DPF> ga_mutation_rate 0.02                # rate of gene mutation

The mutation rate is 0.020000.
DPF> ga_crossover_rate 0.8                # rate of crossover

The crossover rate is 0.800000.
DPF> ga_window_size 10                    # 

The GA's selection window is 10 generations.
DPF> ga_cauchy_alpha 0.0                  # Alpha parameter of Cauchy distribution

The alpha parameter (for the Cauchy distribution) is being set to 0.000000.
DPF> ga_cauchy_beta 1.0                   # Beta parameter Cauchy distribution

The beta parameter (for the Cauchy distribution) is being set to 1.000000.
DPF> set_ga                               # set the above parameters for GA or LGA

DPF> sw_max_its 300                       # iterations of Solis & Wets local search

Solis & Wets algorithms will perform at most 300 iterations.
DPF> sw_max_succ 4                        # consecutive successes before changing rho

Solis & Wets algorithms expand rho every 4 in a row successes.
DPF> sw_max_fail 4                        # consecutive failures before changing rho

Solis & Wets algorithms contract rho every 4 in a row failures.
DPF> sw_rho 1.0                           # size of local search space to sample

rho is set to 1.000000.
DPF> sw_lb_rho 0.01                       # lower bound on rho

rho will never get smaller than 0.010000.
DPF> ls_search_freq 0.06                  # probability of performing local search on individual

Local search will be performed with frequency 0.060000.
DPF> set_psw1                             # set the above pseudo-Solis & Wets parameters

Creating a new Local Search object using the pseudo-Solis-Wets algorithm (pSW1) with the current settings.

DPF> unbound_model bound                  # state of unbound ligand

DPF> ga_run 100                           # do this many hybrid GA-LS runs

centering ligand on specified point: 8.287 34.468 -0.670
Furthest true ligand atom from "about" center is 7.588 Angstroms (maxrad).
Number of requested GA dockings = 100 runs
Unbound model to be used is 'same as bound' [AutoDock 4.2 default].

	BEGINNING GENETIC ALGORITHM DOCKING 1 of 100
Run: 1 Seed: 490790424 669496476 [ Run 1 of 100 GA/GALS ]
Beginning LAMARCKIAN GENETIC ALGORITHM (LGA), with a maximum of 25000000 energy evaluations.

Final-Value: -12.128


	FINAL GENETIC ALGORITHM DOCKED STATE
	_______________________________________________


Detailed state:  trans 11.184 11.595 7.207 quatxyzw -0.656641 -0.646891 -0.362221 0.138387 center 8.287 34.468 -0.670 ntor 10 -103.5988 56.3332 -74.0178 49.3673 -16.8281 -28.9613 -57.3748 -37.2812 -121.3902 -22.0969
State:	 11.184  11.595   7.207  -0.663 -0.653 -0.366 164.091   -103.60   56.33  -74.02   49.37  -16.83  -28.96  -57.37  -37.28 -121.39  -22.10

DOCKED: MODEL        1
DOCKED: USER    Run = 1
DOCKED: USER    DPF = D:/Protein_go_brrr/autodock/final/mut_Y35F/heme_O2/dock.dpf
DOCKED: USER  
DOCKED: USER    Estimated Free Energy of Binding    =   -7.31 kcal/mol  [=(1)+(2)+(3)-(4)]
DOCKED: USER    Estimated Inhibition Constant, Ki   =    4.40 uM (micromolar)  [Temperature = 298.15 K]
DOCKED: USER    
DOCKED: USER    (1) Final Intermolecular Energy     =  -10.29 kcal/mol
DOCKED: USER        vdW + Hbond + desolv Energy     =   -7.20 kcal/mol
DOCKED: USER        Electrostatic Energy            =   -3.09 kcal/mol
DOCKED: USER    (2) Final Total Internal Energy     =   -1.84 kcal/mol
DOCKED: USER    (3) Torsional Free Energy           =   +2.98 kcal/mol
DOCKED: USER    (4) Unbound System's Energy  [=(2)] =   -1.84 kcal/mol
DOCKED: USER    
DOCKED: USER    
DOCKED: USER    NEWDPF move heme_O2_opt.pdbqt
DOCKED: USER    NEWDPF about 8.287000 34.468000 -0.670000
DOCKED: USER    NEWDPF tran0 11.183925 11.595308 7.207032
DOCKED: USER    NEWDPF quaternion0 -0.656641 -0.646891 -0.362221 0.138387
DOCKED: USER    NEWDPF axisangle0 -0.663021 -0.653175 -0.365740 164.090916
DOCKED: USER    NEWDPF quat0 -0.663021 -0.653175 -0.365740 164.090916
DOCKED: USER    NEWDPF dihe0 -103.60 56.33 -74.02 49.37 -16.83 -28.96 -57.37 -37.28 -121.39 -22.10 
DOCKED: USER  keepresnum = 1 
DOCKED: USER  
DOCKED: REMARK  10 active torsions:
DOCKED: REMARK  status: ('A' for Active; 'I' for Inactive)
DOCKED: REMARK    1  A    between atoms: C_6  and  C_10 
DOCKED: REMARK    2  A    between atoms: C_10  and  C_11 
DOCKED: REMARK    3  A    between atoms: C_11  and  C_12 
DOCKED: REMARK    4  A    between atoms: C_12  and  O_14 
DOCKED: REMARK    5  A    between atoms: C_17  and  C_20 
DOCKED: REMARK    6  A    between atoms: C_24  and  C_27 
DOCKED: REMARK    7  A    between atoms: C_31  and  C_34 
DOCKED: REMARK    8  A    between atoms: C_34  and  C_35 
DOCKED: REMARK    9  A    between atoms: C_35  and  C_36 
DOCKED: REMARK   10  A    between atoms: C_36  and  O_38 
DOCKED: USER                              x       y       z     vdW  Elec       q    Type
DOCKED: USER                           _______ _______ _______ _____ _____    ______ ____
DOCKED: ROOT
DOCKED: ATOM      1  C   UNL d   1      11.297   9.515   7.603 -0.12 +0.02    +0.064 A 
DOCKED: ATOM      2  C   UNL d   1      11.564  12.034   3.586 -0.15 -0.01    +0.064 A 
DOCKED: ATOM      3  C   UNL d   1      10.896  16.133   6.004 -0.21 -0.01    +0.064 C 
DOCKED: ATOM      4  C   UNL d   1      11.098  13.597  10.198 -0.21 +0.02    +0.064 A 
DOCKED: ATOM      5  C   UNL d   1      11.426   9.866   6.314 -0.12 +0.01    +0.066 A 
DOCKED: ATOM      6  C   UNL d   1      11.612   8.955   5.269 -0.19 -0.00    -0.021 A 
DOCKED: ATOM      7  C   UNL d   1      11.733   9.687   4.111 -0.27 +0.00    -0.025 A 
DOCKED: ATOM      8  C   UNL d   1      11.569  11.021   4.473 -0.19 -0.00    +0.066 A 
DOCKED: ATOM      9  C   UNL d   1      12.022   9.103   2.745 -0.40 -0.00    +0.051 C 
DOCKED: ATOM     10  C   UNL d   1      11.374  13.450   3.903 -0.19 -0.01    +0.066 A 
DOCKED: ATOM     11  C   UNL d   1      11.214  14.442   2.929 -0.24 +0.00    -0.021 A 
DOCKED: ATOM     12  C   UNL d   1      11.002  15.629   3.607 -0.18 -0.00    +0.000 A 
DOCKED: ATOM     13  C   UNL d   1      11.058  15.288   4.986 -0.16 -0.01    +0.070 A 
DOCKED: ATOM     14  C   UNL d   1      11.235  14.261   1.416 -0.34 -0.02    +0.052 C 
DOCKED: ATOM     15  C   UNL d   1      10.981  15.835   7.413 -0.17 -0.01    +0.066 A 
DOCKED: ATOM     16  C   UNL d   1      10.965  16.793   8.427 -0.17 +0.00    -0.021 A 
DOCKED: ATOM     17  C   UNL d   1      11.023  16.093   9.632 -0.21 +0.00    +0.000 A 
DOCKED: ATOM     18  C   UNL d   1      11.067  14.742   9.258 -0.22 +0.01    +0.070 A 
DOCKED: ATOM     19  C   UNL d   1      10.953  18.276   8.156 -0.14 -0.01    +0.052 C 
DOCKED: ATOM     20  C   UNL d   1      11.184  12.292   9.874 -0.18 +0.02    +0.066 A 
DOCKED: ATOM     21  C   UNL d   1      11.191  11.256  10.804 -0.15 -0.01    -0.025 A 
DOCKED: ATOM     22  C   UNL d   1      11.220  10.084  10.082 -0.14 -0.01    -0.021 A 
DOCKED: ATOM     23  C   UNL d   1      11.248  10.451   8.732 -0.14 +0.02    +0.066 A 
DOCKED: ATOM     24  C   UNL d   1      11.174  11.378  12.306 -0.15 +0.03    +0.051 C 
DOCKED: ATOM     25  N   UNL d   1      11.445  11.135   5.838 +0.04 -0.02    -0.248 N 
DOCKED: ATOM     26  N   UNL d   1      11.289  13.962   5.158 -0.01 +0.02    -0.248 N 
DOCKED: ATOM     27  N   UNL d   1      11.117  14.608   7.908 -0.10 -0.01    -0.248 N 
DOCKED: ATOM     28  N   UNL d   1      11.272  11.794   8.612 -0.10 -0.04    -0.248 N 
DOCKED: ATOM     29 FE   UNL d   1      11.281  12.872   6.899 -0.04 +0.00    +0.000 Fe
DOCKED: ATOM     30  O   UNL d   1      12.683  12.658   6.258 -0.11 +0.00    +0.000 OA
DOCKED: ATOM     31  O   UNL d   1      12.572  13.262   7.709 -0.11 +0.00    +0.000 OA
DOCKED: ENDROOT
DOCKED: BRANCH   6  32
DOCKED: ATOM     32  C   UNL d   1      11.808   7.464   5.368 -0.21 +0.01    +0.052 C 
DOCKED: BRANCH  32  33
DOCKED: ATOM     33  C   UNL d   1      12.652   7.056   6.572 -0.13 +0.05    +0.115 C 
DOCKED: BRANCH  33  34
DOCKED: ATOM     34  C   UNL d   1      11.909   6.138   7.511 -0.15 +0.13    +0.139 C 
DOCKED: ATOM     35  O   UNL d   1      12.366   5.909   8.619 -0.03 -0.78    -0.650 OA
DOCKED: BRANCH  34  36
DOCKED: ATOM     36  O   UNL d   1      10.758   5.538   7.143 -0.51 -1.05    -0.776 OA
DOCKED: ATOM     37  H   UNL d   1       9.899   5.847   7.452 +0.04 +0.25    +0.167 HD
DOCKED: ENDBRANCH  34  36
DOCKED: ENDBRANCH  33  34
DOCKED: ENDBRANCH  32  33
DOCKED: ENDBRANCH   6  32
DOCKED: BRANCH  22  38
DOCKED: ATOM     38  C   UNL d   1      11.282   8.695  10.663 -0.11 +0.02    +0.052 C 
DOCKED: BRANCH  38  39
DOCKED: ATOM     39  C   UNL d   1       9.918   8.202  11.140 -0.09 +0.06    +0.115 C 
DOCKED: BRANCH  39  40
DOCKED: ATOM     40  C   UNL d   1       9.701   6.738  10.851 +0.05 +0.16    +0.139 C 
DOCKED: ATOM     41  O   UNL d   1       9.575   5.950  11.774 -0.44 -0.82    -0.650 OA
DOCKED: BRANCH  40  42
DOCKED: ATOM     42  O   UNL d   1       9.590   6.288   9.586 +0.16 -1.37    -0.776 OA
DOCKED: ATOM     43  H   UNL d   1      10.297   6.414   8.942 +0.03 +0.28    +0.167 HD
DOCKED: ENDBRANCH  40  42
DOCKED: ENDBRANCH  39  40
DOCKED: ENDBRANCH  38  39
DOCKED: ENDBRANCH  22  38
DOCKED: BRANCH  12  44
DOCKED: ATOM     44  C   UNL d   1      10.777  16.939   2.882 -0.16 -0.00    +0.004 C 
DOCKED: ATOM     45  C   UNL d   1       9.622  17.569   2.670 -0.22 -0.00    +0.012 C 
DOCKED: ENDBRANCH  12  44
DOCKED: BRANCH  17  46
DOCKED: ATOM     46  C   UNL d   1      11.095  16.579  11.055 -0.18 +0.00    +0.004 C 
DOCKED: ATOM     47  C   UNL d   1      10.412  17.581  11.624 -0.19 +0.00    +0.012 C 
DOCKED: ENDBRANCH  17  46
DOCKED: TORSDOF 10
DOCKED: TER
DOCKED: ENDMDL
________________________________________________________________________________


	BEGINNING GENETIC ALGORITHM DOCKING 2 of 100
Run: 2 Seed: 456236996 1369125047 [ Run 2 of 100 GA/GALS ]
Beginning LAMARCKIAN GENETIC ALGORITHM (LGA), with a maximum of 25000000 energy evaluations.

Final-Value: -9.501


	FINAL GENETIC ALGORITHM DOCKED STATE
	_______________________________________________


Detailed state:  trans -9.329 -21.289 -10.085 quatxyzw -0.507738 -0.650804 -0.219705 -0.519987 center 8.287 34.468 -0.670 ntor 10 71.3614 49.7701 62.3558 23.5111 -17.4145 34.8492 -88.0053 55.4972 165.8286 -164.9659
State:	 -9.329 -21.289 -10.085  -0.594 -0.762 -0.257 -117.337     71.36   49.77   62.36   23.51  -17.41   34.85  -88.01   55.50  165.83 -164.97

DOCKED: MODEL        2
DOCKED: USER    Run = 2
DOCKED: USER    DPF = D:/Protein_go_brrr/autodock/final/mut_Y35F/heme_O2/dock.dpf
DOCKED: USER  
DOCKED: USER    Estimated Free Energy of Binding    =   -5.13 kcal/mol  [=(1)+(2)+(3)-(4)]
DOCKED: USER    Estimated Inhibition Constant, Ki   =  174.53 uM (micromolar)  [Temperature = 298.15 K]
DOCKED: USER    
DOCKED: USER    (1) Final Intermolecular Energy     =   -8.11 kcal/mol
DOCKED: USER        vdW + Hbond + desolv Energy     =   -4.99 kcal/mol
DOCKED: USER        Electrostatic Energy            =   -3.12 kcal/mol
DOCKED: USER    (2) Final Total Internal Energy     =   -1.39 kcal/mol
DOCKED: USER    (3) Torsional Free Energy           =   +2.98 kcal/mol
DOCKED: USER    (4) Unbound System's Energy  [=(2)] =   -1.39 kcal/mol
DOCKED: USER    
DOCKED: USER    
DOCKED: USER    NEWDPF move heme_O2_opt.pdbqt
DOCKED: USER    NEWDPF about 8.287000 34.468000 -0.670000
DOCKED: USER    NEWDPF tran0 -9.329280 -21.289070 -10.085347
DOCKED: USER    NEWDPF quaternion0 -0.507738 -0.650804 -0.219705 -0.519987
DOCKED: USER    NEWDPF axisangle0 -0.594419 -0.761910 -0.257213 -117.337300
DOCKED: USER    NEWDPF quat0 -0.594419 -0.761910 -0.257213 -117.337300
DOCKED: USER    NEWDPF dihe0 71.36 49.77 62.36 23.51 -17.41 34.85 -88.01 55.50 165.83 -164.97 
DOCKED: USER  keepresnum = 1 
DOCKED: USER  
DOCKED: REMARK  10 active torsions:
DOCKED: REMARK  status: ('A' for Active; 'I' for Inactive)
DOCKED: REMARK    1  A    between atoms: C_6  and  C_10 
DOCKED: REMARK    2  A    between atoms: C_10  and  C_11 
DOCKED: REMARK    3  A    between atoms: C_11  and  C_12 
DOCKED: REMARK    4  A    between atoms: C_12  and  O_14 
DOCKED: REMARK    5  A    between atoms: C_17  and  C_20 
DOCKED: REMARK    6  A    between atoms: C_24  and  C_27 
DOCKED: REMARK    7  A    between atoms: C_31  and  C_34 
DOCKED: REMARK    8  A    between atoms: C_34  and  C_35 
DOCKED: REMARK    9  A    between atoms: C_35  and  C_36 
DOCKED: REMARK   10  A    between atoms: C_36  and  O_38 
DOCKED: USER                              x       y       z     vdW  Elec       q    Type
DOCKED: USER                           _______ _______ _______ _____ _____    ______ ____
DOCKED: ROOT
DOCKED: ATOM      1  C   UNL d   1      -8.536 -22.515 -11.624 -0.05 +0.02    +0.064 A 
DOCKED: ATOM      2  C   UNL d   1     -12.577 -20.047 -11.251 -0.02 +0.00    +0.064 A 
DOCKED: ATOM      3  C   UNL d   1     -11.383 -18.583  -6.832 +0.03 +0.00    +0.064 C 
DOCKED: ATOM      4  C   UNL d   1      -7.007 -20.728  -7.392 -0.19 -0.00    +0.064 A 
DOCKED: ATOM      5  C   UNL d   1      -9.732 -21.962 -11.884 -0.04 +0.01    +0.066 A 
DOCKED: ATOM      6  C   UNL d   1     -10.446 -22.162 -13.068 -0.02 -0.00    -0.021 A 
DOCKED: ATOM      7  C   UNL d   1     -11.596 -21.413 -12.979 -0.01 -0.00    -0.025 A 
DOCKED: ATOM      8  C   UNL d   1     -11.576 -20.815 -11.723 -0.02 +0.01    +0.066 A 
DOCKED: ATOM      9  C   UNL d   1     -12.628 -21.278 -14.078 -0.00 +0.00    +0.051 C 
DOCKED: ATOM     10  C   UNL d   1     -12.623 -19.412  -9.933 -0.04 +0.00    +0.066 A 
DOCKED: ATOM     11  C   UNL d   1     -13.756 -18.762  -9.431 -0.05 -0.00    -0.021 A 
DOCKED: ATOM     12  C   UNL d   1     -13.437 -18.348  -8.151 -0.09 +0.00    +0.000 A 
DOCKED: ATOM     13  C   UNL d   1     -12.094 -18.768  -7.944 -0.05 +0.00    +0.070 A 
DOCKED: ATOM     14  C   UNL d   1     -15.095 -18.568 -10.133 -0.03 +0.00    +0.052 C 
DOCKED: ATOM     15  C   UNL d   1     -10.010 -18.961  -6.597 -0.13 -0.00    +0.066 A 
DOCKED: ATOM     16  C   UNL d   1      -9.271 -18.593  -5.473 -0.21 +0.00    -0.021 A 
DOCKED: ATOM     17  C   UNL d   1      -8.019 -19.193  -5.611 -0.24 -0.00    +0.000 A 
DOCKED: ATOM     18  C   UNL d   1      -8.090 -19.892  -6.824 -0.21 -0.00    +0.070 A 
DOCKED: ATOM     19  C   UNL d   1      -9.800 -17.668  -4.406 -0.25 -0.00    +0.052 C 
DOCKED: ATOM     20  C   UNL d   1      -7.026 -21.377  -8.573 -0.15 +0.00    +0.066 A 
DOCKED: ATOM     21  C   UNL d   1      -5.981 -22.164  -9.048 -0.11 -0.00    -0.025 A 
DOCKED: ATOM     22  C   UNL d   1      -6.410 -22.704 -10.240 -0.09 -0.00    -0.021 A 
DOCKED: ATOM     23  C   UNL d   1      -7.699 -22.209 -10.458 -0.08 +0.01    +0.066 A 
DOCKED: ATOM     24  C   UNL d   1      -4.640 -22.388  -8.399 -0.11 -0.00    +0.051 C 
DOCKED: ATOM     25  N   UNL d   1     -10.397 -21.101 -11.074 -0.02 -0.03    -0.248 N 
DOCKED: ATOM     26  N   UNL d   1     -11.605 -19.410  -9.035 -0.04 -0.01    -0.248 N 
DOCKED: ATOM     27  N   UNL d   1      -9.279 -19.679  -7.444 -0.11 +0.01    -0.248 N 
DOCKED: ATOM     28  N   UNL d   1      -8.052 -21.367  -9.464 -0.07 -0.02    -0.248 N 
DOCKED: ATOM     29 FE   UNL d   1      -9.814 -20.395  -9.249 -0.02 +0.00    +0.000 Fe
DOCKED: ATOM     30  O   UNL d   1      -9.850 -19.307 -10.362 -0.19 +0.00    +0.000 OA
DOCKED: ATOM     31  O   UNL d   1      -8.680 -19.307  -9.307 -0.25 -0.00    +0.000 OA
DOCKED: ENDROOT
DOCKED: BRANCH   6  32
DOCKED: ATOM     32  C   UNL d   1     -10.005 -22.917 -14.296 -0.02 +0.01    +0.052 C 
DOCKED: BRANCH  32  33
DOCKED: ATOM     33  C   UNL d   1      -9.739 -22.003 -15.489 -0.03 +0.04    +0.115 C 
DOCKED: BRANCH  33  34
DOCKED: ATOM     34  C   UNL d   1      -8.310 -21.523 -15.538 -0.03 +0.14    +0.139 C 
DOCKED: ATOM     35  O   UNL d   1      -8.002 -20.624 -16.305 -0.13 -0.67    -0.650 OA
DOCKED: BRANCH  34  36
DOCKED: ATOM     36  O   UNL d   1      -7.352 -22.084 -14.772 -0.50 -1.35    -0.776 OA
DOCKED: ATOM     37  H   UNL d   1      -7.012 -22.969 -14.947 -0.00 +0.26    +0.167 HD
DOCKED: ENDBRANCH  34  36
DOCKED: ENDBRANCH  33  34
DOCKED: ENDBRANCH  32  33
DOCKED: ENDBRANCH   6  32
DOCKED: BRANCH  22  38
DOCKED: ATOM     38  C   UNL d   1      -5.597 -23.592 -11.145 -0.07 +0.01    +0.052 C 
DOCKED: BRANCH  38  39
DOCKED: ATOM     39  C   UNL d   1      -4.360 -22.885 -11.697 -0.10 +0.05    +0.115 C 
DOCKED: BRANCH  39  40
DOCKED: ATOM     40  C   UNL d   1      -4.292 -22.935 -13.203 +0.04 +0.16    +0.139 C 
DOCKED: ATOM     41  O   UNL d   1      -3.362 -22.401 -13.785 -0.38 -1.03    -0.650 OA
DOCKED: BRANCH  40  42
DOCKED: ATOM     42  O   UNL d   1      -5.215 -23.605 -13.919 -0.15 -0.95    -0.776 OA
DOCKED: ATOM     43  H   UNL d   1      -6.160 -23.446 -13.799 +0.00 +0.18    +0.167 HD
DOCKED: ENDBRANCH  40  42
DOCKED: ENDBRANCH  39  40
DOCKED: ENDBRANCH  38  39
DOCKED: ENDBRANCH  22  38
DOCKED: BRANCH  12  44
DOCKED: ATOM     44  C   UNL d   1     -14.426 -17.607  -7.276 -0.13 +0.00    +0.004 C 
DOCKED: ATOM     45  C   UNL d   1     -14.287 -16.404  -6.720 -0.24 +0.00    +0.012 C 
DOCKED: ENDBRANCH  12  44
DOCKED: BRANCH  17  46
DOCKED: ATOM     46  C   UNL d   1      -6.786 -19.115  -4.751 -0.10 -0.00    +0.004 C 
DOCKED: ATOM     47  C   UNL d   1      -6.685 -18.693  -3.484 -0.31 -0.00    +0.012 C 
DOCKED: ENDBRANCH  17  46
DOCKED: TORSDOF 10
DOCKED: TER
DOCKED: ENDMDL
________________________________________________________________________________


	BEGINNING GENETIC ALGORITHM DOCKING 3 of 100
Run: 3 Seed: 1411377327 1202545738 [ Run 3 of 100 GA/GALS ]
Beginning LAMARCKIAN GENETIC ALGORITHM (LGA), with a maximum of 25000000 energy evaluations.

Final-Value: -9.300


	FINAL GENETIC ALGORITHM DOCKED STATE
	_______________________________________________


Detailed state:  trans -3.497 -10.735 -13.774 quatxyzw -0.064081 0.348976 0.898798 0.257431 center 8.287 34.468 -0.670 ntor 10 69.2253 -135.3567 42.9024 -4.4348 -102.5737 -162.6384 25.6634 -71.9261 138.0815 12.0065
State:	 -3.497 -10.735 -13.774  -0.066  0.361  0.930 150.165     69.23 -135.36   42.90   -4.43 -102.57 -162.64   25.66  -71.93  138.08   12.01

DOCKED: MODEL        3
DOCKED: USER    Run = 3
DOCKED: USER    DPF = D:/Protein_go_brrr/autodock/final/mut_Y35F/heme_O2/dock.dpf
DOCKED: USER  
DOCKED: USER    Estimated Free Energy of Binding    =   -6.11 kcal/mol  [=(1)+(2)+(3)-(4)]
DOCKED: USER    Estimated Inhibition Constant, Ki   =   33.02 uM (micromolar)  [Temperature = 298.15 K]
DOCKED: USER    
DOCKED: USER    (1) Final Intermolecular Energy     =   -9.10 kcal/mol
DOCKED: USER        vdW + Hbond + desolv Energy     =   -8.15 kcal/mol
DOCKED: USER        Electrostatic Energy            =   -0.95 kcal/mol
DOCKED: USER    (2) Final Total Internal Energy     =   -0.20 kcal/mol
DOCKED: USER    (3) Torsional Free Energy           =   +2.98 kcal/mol
DOCKED: USER    (4) Unbound System's Energy  [=(2)] =   -0.20 kcal/mol
DOCKED: USER    
DOCKED: USER    
DOCKED: USER    NEWDPF move heme_O2_opt.pdbqt
DOCKED: USER    NEWDPF about 8.287000 34.468000 -0.670000
DOCKED: USER    NEWDPF tran0 -3.497130 -10.735079 -13.773627
DOCKED: USER    NEWDPF quaternion0 -0.064081 0.348976 0.898798 0.257431
DOCKED: USER    NEWDPF axisangle0 -0.066316 0.361148 0.930147 150.164590
DOCKED: USER    NEWDPF quat0 -0.066316 0.361148 0.930147 150.164590
DOCKED: USER    NEWDPF dihe0 69.23 -135.36 42.90 -4.43 -102.57 -162.64 25.66 -71.93 138.08 12.01 
DOCKED: USER  keepresnum = 1 
DOCKED: USER  
DOCKED: REMARK  10 active torsions:
DOCKED: REMARK  status: ('A' for Active; 'I' for Inactive)
DOCKED: REMARK    1  A    between atoms: C_6  and  C_10 
DOCKED: REMARK    2  A    between atoms: C_10  and  C_11 
DOCKED: REMARK    3  A    between atoms: C_11  and  C_12 
DOCKED: REMARK    4  A    between atoms: C_12  and  O_14 
DOCKED: REMARK    5  A    between atoms: C_17  and  C_20 
DOCKED: REMARK    6  A    between atoms: C_24  and  C_27 
DOCKED: REMARK    7  A    between atoms: C_31  and  C_34 
DOCKED: REMARK    8  A    between atoms: C_34  and  C_35 
DOCKED: REMARK    9  A    between atoms: C_35  and  C_36 
DOCKED: REMARK   10  A    between atoms: C_36  and  O_38 
DOCKED: USER                              x       y       z     vdW  Elec       q    Type
DOCKED: USER                           _______ _______ _______ _____ _____    ______ ____
DOCKED: ROOT
DOCKED: ATOM      1  C   UNL d   1      -1.403 -10.637 -14.095 -0.18 -0.00    +0.064 A 
DOCKED: ATOM      2  C   UNL d   1      -4.645  -7.329 -13.047 -0.11 -0.00    +0.064 A 
DOCKED: ATOM      3  C   UNL d   1      -8.149 -10.618 -13.087 -0.18 -0.01    +0.064 C 
DOCKED: ATOM      4  C   UNL d   1      -4.755 -14.108 -13.694 -0.15 +0.00    +0.064 A 
DOCKED: ATOM      5  C   UNL d   1      -1.999  -9.469 -13.805 -0.18 -0.00    +0.066 A 
DOCKED: ATOM      6  C   UNL d   1      -1.326  -8.247 -13.721 -0.21 -0.00    -0.021 A 
DOCKED: ATOM      7  C   UNL d   1      -2.256  -7.295 -13.375 -0.18 -0.00    -0.025 A 
DOCKED: ATOM      8  C   UNL d   1      -3.481  -7.954 -13.304 -0.11 -0.00    +0.066 A 
DOCKED: ATOM      9  C   UNL d   1      -1.946  -5.840 -13.103 -0.23 +0.00    +0.051 C 
DOCKED: ATOM     10  C   UNL d   1      -5.963  -7.963 -12.982 -0.12 -0.00    +0.066 A 
DOCKED: ATOM     11  C   UNL d   1      -7.158  -7.243 -12.874 -0.14 +0.00    -0.021 A 
DOCKED: ATOM     12  C   UNL d   1      -8.181  -8.173 -12.902 -0.14 -0.00    +0.000 A 
DOCKED: ATOM     13  C   UNL d   1      -7.537  -9.436 -13.016 -0.13 -0.01    +0.070 A 
DOCKED: ATOM     14  C   UNL d   1      -7.319  -5.731 -12.776 -0.12 +0.00    +0.052 C 
DOCKED: ATOM     15  C   UNL d   1      -7.532 -11.920 -13.167 -0.15 -0.01    +0.066 A 
DOCKED: ATOM     16  C   UNL d   1      -8.222 -13.129 -13.073 -0.21 +0.00    -0.021 A 
DOCKED: ATOM     17  C   UNL d   1      -7.275 -14.138 -13.242 -0.26 +0.00    +0.000 A 
DOCKED: ATOM     18  C   UNL d   1      -6.062 -13.461 -13.432 -0.21 -0.00    +0.070 A 
DOCKED: ATOM     19  C   UNL d   1      -9.699 -13.212 -12.777 -0.23 +0.00    +0.052 C 
DOCKED: ATOM     20  C   UNL d   1      -3.566 -13.490 -13.838 -0.13 +0.00    +0.066 A 
DOCKED: ATOM     21  C   UNL d   1      -2.370 -14.152 -14.101 -0.15 -0.00    -0.025 A 
DOCKED: ATOM     22  C   UNL d   1      -1.408 -13.177 -14.245 -0.17 -0.00    -0.021 A 
DOCKED: ATOM     23  C   UNL d   1      -2.053 -11.952 -14.046 -0.17 -0.00    +0.066 A 
DOCKED: ATOM     24  C   UNL d   1      -2.154 -15.639 -14.206 -0.20 +0.01    +0.051 C 
DOCKED: ATOM     25  N   UNL d   1      -3.310  -9.305 -13.505 -0.09 +0.01    -0.248 N 
DOCKED: ATOM     26  N   UNL d   1      -6.187  -9.299 -13.060 -0.06 +0.02    -0.248 N 
DOCKED: ATOM     27  N   UNL d   1      -6.225 -12.119 -13.309 -0.09 +0.02    -0.248 N 
DOCKED: ATOM     28  N   UNL d   1      -3.355 -12.150 -13.754 -0.12 +0.01    -0.248 N 
DOCKED: ATOM     29 FE   UNL d   1      -4.763 -10.737 -13.409 -0.04 -0.00    +0.000 Fe
DOCKED: ATOM     30  O   UNL d   1      -4.414 -10.103 -12.031 -0.25 -0.00    +0.000 OA
DOCKED: ATOM     31  O   UNL d   1      -4.688 -11.651 -12.131 -0.43 -0.00    +0.000 OA
DOCKED: ENDROOT
DOCKED: BRANCH   6  32
DOCKED: ATOM     32  C   UNL d   1       0.157  -8.000 -13.826 -0.25 +0.00    +0.052 C 
DOCKED: BRANCH  32  33
DOCKED: ATOM     33  C   UNL d   1       0.664  -6.993 -12.798 -0.32 +0.02    +0.115 C 
DOCKED: BRANCH  33  34
DOCKED: ATOM     34  C   UNL d   1       1.948  -6.329 -13.229 -0.22 +0.07    +0.139 C 
DOCKED: ATOM     35  O   UNL d   1       1.931  -5.168 -13.604 -0.21 -0.49    -0.650 OA
DOCKED: BRANCH  34  36
DOCKED: ATOM     36  O   UNL d   1       3.119  -7.000 -13.236 -0.26 -0.56    -0.776 OA
DOCKED: ATOM     37  H   UNL d   1       3.299  -7.707 -13.866 +0.03 +0.05    +0.167 HD
DOCKED: ENDBRANCH  34  36
DOCKED: ENDBRANCH  33  34
DOCKED: ENDBRANCH  32  33
DOCKED: ENDBRANCH   6  32
DOCKED: BRANCH  22  38
DOCKED: ATOM     38  C   UNL d   1       0.058 -13.419 -14.496 -0.16 -0.00    +0.052 C 
DOCKED: BRANCH  38  39
DOCKED: ATOM     39  C   UNL d   1       0.503 -12.920 -15.870 -0.05 -0.00    +0.115 C 
DOCKED: BRANCH  39  40
DOCKED: ATOM     40  C   UNL d   1       1.336 -11.666 -15.785 -0.10 +0.00    +0.139 C 
DOCKED: ATOM     41  O   UNL d   1       1.310 -10.989 -14.770 -0.55 -0.10    -0.650 OA
DOCKED: BRANCH  40  42
DOCKED: ATOM     42  O   UNL d   1       2.151 -11.303 -16.794 +0.02 -0.01    -0.776 OA
DOCKED: ATOM     43  H   UNL d   1       3.063 -11.033 -16.634 +0.02 +0.00    +0.167 HD
DOCKED: ENDBRANCH  40  42
DOCKED: ENDBRANCH  39  40
DOCKED: ENDBRANCH  38  39
DOCKED: ENDBRANCH  22  38
DOCKED: BRANCH  12  44
DOCKED: ATOM     44  C   UNL d   1      -9.638  -7.769 -12.815 -0.16 -0.00    +0.004 C 
DOCKED: ATOM     45  C   UNL d   1     -10.623  -8.388 -12.165 -0.25 -0.00    +0.012 C 
DOCKED: ENDBRANCH  12  44
DOCKED: BRANCH  17  46
DOCKED: ATOM     46  C   UNL d   1      -7.406 -15.637 -13.183 -0.26 +0.00    +0.004 C 
DOCKED: ATOM     47  C   UNL d   1      -8.446 -16.361 -12.752 -0.28 +0.00    +0.012 C 
DOCKED: ENDBRANCH  17  46
DOCKED: TORSDOF 10
DOCKED: TER
DOCKED: ENDMDL
________________________________________________________________________________


	BEGINNING GENETIC ALGORITHM DOCKING 4 of 100
Run: 4 Seed: 482992418 233201404 [ Run 4 of 100 GA/GALS ]
Beginning LAMARCKIAN GENETIC ALGORITHM (LGA), with a maximum of 25000000 energy evaluations.

Final-Value: -9.561


	FINAL GENETIC ALGORITHM DOCKED STATE
	_______________________________________________


Detailed state:  trans 13.870 5.844 8.380 quatxyzw -0.440860 -0.081989 0.812315 -0.372915 center 8.287 34.468 -0.670 ntor 10 48.1499 86.4239 66.3232 76.9632 56.6499 32.4235 180.0000 85.1840 -159.1713 175.6583
State:	 13.870   5.844   8.380  -0.475 -0.088  0.875 -136.209     48.15   86.42   66.32   76.96   56.65   32.42  180.00   85.18 -159.17  175.66

DOCKED: MODEL        4
DOCKED: USER    Run = 4
DOCKED: USER    DPF = D:/Protein_go_brrr/autodock/final/mut_Y35F/heme_O2/dock.dpf
DOCKED: USER  
DOCKED: USER    Estimated Free Energy of Binding    =   -4.56 kcal/mol  [=(1)+(2)+(3)-(4)]
DOCKED: USER    Estimated Inhibition Constant, Ki   =  457.75 uM (micromolar)  [Temperature = 298.15 K]
DOCKED: USER    
DOCKED: USER    (1) Final Intermolecular Energy     =   -7.54 kcal/mol
DOCKED: USER        vdW + Hbond + desolv Energy     =   -5.57 kcal/mol
DOCKED: USER        Electrostatic Energy            =   -1.96 kcal/mol
DOCKED: USER    (2) Final Total Internal Energy     =   -2.02 kcal/mol
DOCKED: USER    (3) Torsional Free Energy           =   +2.98 kcal/mol
DOCKED: USER    (4) Unbound System's Energy  [=(2)] =   -2.02 kcal/mol
DOCKED: USER    
DOCKED: USER    
DOCKED: USER    NEWDPF move heme_O2_opt.pdbqt
DOCKED: USER    NEWDPF about 8.287000 34.468000 -0.670000
DOCKED: USER    NEWDPF tran0 13.870306 5.844160 8.379794
DOCKED: USER    NEWDPF quaternion0 -0.440860 -0.081989 0.812315 -0.372915
DOCKED: USER    NEWDPF axisangle0 -0.475133 -0.088363 0.875466 -136.209023
DOCKED: USER    NEWDPF quat0 -0.475133 -0.088363 0.875466 -136.209023
DOCKED: USER    NEWDPF dihe0 48.15 86.42 66.32 76.96 56.65 32.42 180.00 85.18 -159.17 175.66 
DOCKED: USER  keepresnum = 1 
DOCKED: USER  
DOCKED: REMARK  10 active torsions:
DOCKED: REMARK  status: ('A' for Active; 'I' for Inactive)
DOCKED: REMARK    1  A    between atoms: C_6  and  C_10 
DOCKED: REMARK    2  A    between atoms: C_10  and  C_11 
DOCKED: REMARK    3  A    between atoms: C_11  and  C_12 
DOCKED: REMARK    4  A    between atoms: C_12  and  O_14 
DOCKED: REMARK    5  A    between atoms: C_17  and  C_20 
DOCKED: REMARK    6  A    between atoms: C_24  and  C_27 
DOCKED: REMARK    7  A    between atoms: C_31  and  C_34 
DOCKED: REMARK    8  A    between atoms: C_34  and  C_35 
DOCKED: REMARK    9  A    between atoms: C_35  and  C_36 
DOCKED: REMARK   10  A    between atoms: C_36  and  O_38 
DOCKED: USER                              x       y       z     vdW  Elec       q    Type
DOCKED: USER                           _______ _______ _______ _____ _____    ______ ____
DOCKED: ROOT
DOCKED: ATOM      1  C   UNL d   1      14.794   3.993   8.848 -0.04 +0.03    +0.064 A 
DOCKED: ATOM      2  C   UNL d   1      12.976   7.447  11.555 -0.01 +0.03    +0.064 A 
DOCKED: ATOM      3  C   UNL d   1      11.858  10.035   7.663 -0.11 +0.01    +0.064 C 
DOCKED: ATOM      4  C   UNL d   1      13.292   6.278   4.853 -0.22 +0.02    +0.064 A 
DOCKED: ATOM      5  C   UNL d   1      14.389   4.720   9.902 -0.04 +0.04    +0.066 A 
DOCKED: ATOM      6  C   UNL d   1      14.554   4.329  11.234 -0.02 -0.01    -0.021 A 
DOCKED: ATOM      7  C   UNL d   1      13.989   5.308  12.017 -0.02 -0.01    -0.025 A 
DOCKED: ATOM      8  C   UNL d   1      13.538   6.294  11.144 -0.02 +0.04    +0.066 A 
DOCKED: ATOM      9  C   UNL d   1      13.879   5.253  13.525 -0.00 +0.01    +0.051 C 
DOCKED: ATOM     10  C   UNL d   1      12.504   8.527  10.688 -0.03 +0.03    +0.066 A 
DOCKED: ATOM     11  C   UNL d   1      12.079   9.771  11.169 -0.06 -0.01    -0.021 A 
DOCKED: ATOM     12  C   UNL d   1      11.770  10.537  10.061 -0.11 +0.00    +0.000 A 
DOCKED: ATOM     13  C   UNL d   1      12.017   9.695   8.942 -0.07 +0.02    +0.070 A 
DOCKED: ATOM     14  C   UNL d   1      11.999  10.218  12.624 -0.05 +0.02    +0.052 C 
DOCKED: ATOM     15  C   UNL d   1      12.064   9.201   6.503 -0.09 +0.01    +0.066 A 
DOCKED: ATOM     16  C   UNL d   1      11.723   9.562   5.199 -0.17 -0.00    -0.021 A 
DOCKED: ATOM     17  C   UNL d   1      12.122   8.506   4.381 -0.28 +0.00    +0.000 A 
DOCKED: ATOM     18  C   UNL d   1      12.685   7.568   5.258 -0.19 +0.02    +0.070 A 
DOCKED: ATOM     19  C   UNL d   1      11.006  10.845   4.862 -0.11 +0.00    +0.052 C 
DOCKED: ATOM     20  C   UNL d   1      13.801   5.336   5.671 -0.20 +0.03    +0.066 A 
DOCKED: ATOM     21  C   UNL d   1      14.376   4.148   5.230 -0.29 -0.01    -0.025 A 
DOCKED: ATOM     22  C   UNL d   1      14.834   3.496   6.354 -0.16 -0.01    -0.021 A 
DOCKED: ATOM     23  C   UNL d   1      14.504   4.307   7.444 -0.08 +0.03    +0.066 A 
DOCKED: ATOM     24  C   UNL d   1      14.480   3.656   3.810 -0.48 +0.01    +0.051 C 
DOCKED: ATOM     25  N   UNL d   1      13.725   5.901   9.839 -0.03 -0.16    -0.248 N 
DOCKED: ATOM     26  N   UNL d   1      12.459   8.473   9.332 -0.02 -0.10    -0.248 N 
DOCKED: ATOM     27  N   UNL d   1      12.573   7.973   6.548 -0.04 -0.07    -0.248 N 
DOCKED: ATOM     28  N   UNL d   1      13.837   5.403   7.029 -0.06 -0.13    -0.248 N 
DOCKED: ATOM     29 FE   UNL d   1      13.152   6.928   8.170 -0.02 +0.00    +0.000 Fe
DOCKED: ATOM     30  O   UNL d   1      11.962   6.354   8.994 -0.15 +0.00    +0.000 OA
DOCKED: ATOM     31  O   UNL d   1      11.916   6.307   7.420 -0.25 +0.00    +0.000 OA
DOCKED: ENDROOT
DOCKED: BRANCH   6  32
DOCKED: ATOM     32  C   UNL d   1      15.098   3.022  11.751 -0.01 +0.02    +0.052 C 
DOCKED: BRANCH  32  33
DOCKED: ATOM     33  C   UNL d   1      14.104   1.873  11.617 -0.03 +0.05    +0.115 C 
DOCKED: BRANCH  33  34
DOCKED: ATOM     34  C   UNL d   1      12.781   2.320  11.045 -0.06 +0.13    +0.139 C 
DOCKED: ATOM     35  O   UNL d   1      11.868   2.619  11.798 -0.08 -0.71    -0.650 OA
DOCKED: BRANCH  34  36
DOCKED: ATOM     36  O   UNL d   1      12.572   2.371   9.713 -0.34 -1.17    -0.776 OA
DOCKED: ATOM     37  H   UNL d   1      12.799   1.636   9.132 +0.02 +0.15    +0.167 HD
DOCKED: ENDBRANCH  34  36
DOCKED: ENDBRANCH  33  34
DOCKED: ENDBRANCH  32  33
DOCKED: ENDBRANCH   6  32
DOCKED: BRANCH  22  38
DOCKED: ATOM     38  C   UNL d   1      15.493   2.141   6.376 -0.17 +0.01    +0.052 C 
DOCKED: BRANCH  38  39
DOCKED: ATOM     39  C   UNL d   1      14.479   1.000   6.354 -0.25 +0.03    +0.115 C 
DOCKED: BRANCH  39  40
DOCKED: ATOM     40  C   UNL d   1      14.168   0.479   7.734 -0.17 +0.04    +0.139 C 
DOCKED: ATOM     41  O   UNL d   1      13.331  -0.399   7.877 -0.02 -0.19    -0.650 OA
DOCKED: BRANCH  40  42
DOCKED: ATOM     42  O   UNL d   1      14.836   0.928   8.815 +0.05 -0.24    -0.776 OA
DOCKED: ATOM     43  H   UNL d   1      14.533   1.698   9.311 +0.03 +0.07    +0.167 HD
DOCKED: ENDBRANCH  40  42
DOCKED: ENDBRANCH  39  40
DOCKED: ENDBRANCH  38  39
DOCKED: ENDBRANCH  22  38
DOCKED: BRANCH  12  44
DOCKED: ATOM     44  C   UNL d   1      11.277  11.964  10.183 -0.20 +0.00    +0.004 C 
DOCKED: ATOM     45  C   UNL d   1      10.105  12.462   9.790 -0.25 +0.00    +0.012 C 
DOCKED: ENDBRANCH  12  44
DOCKED: BRANCH  17  46
DOCKED: ATOM     46  C   UNL d   1      11.968   8.291   2.899 -0.40 -0.00    +0.004 C 
DOCKED: ATOM     47  C   UNL d   1      12.587   8.934   1.900 -0.29 -0.00    +0.012 C 
DOCKED: ENDBRANCH  17  46
DOCKED: TORSDOF 10
DOCKED: TER
DOCKED: ENDMDL
________________________________________________________________________________


	BEGINNING GENETIC ALGORITHM DOCKING 5 of 100
Run: 5 Seed: 328875483 1235366081 [ Run 5 of 100 GA/GALS ]
Beginning LAMARCKIAN GENETIC ALGORITHM (LGA), with a maximum of 25000000 energy evaluations.

Final-Value: -8.804


	FINAL GENETIC ALGORITHM DOCKED STATE
	_______________________________________________


Detailed state:  trans 10.495 14.710 -9.370 quatxyzw -0.176720 0.816994 -0.071011 -0.544287 center 8.287 34.468 -0.670 ntor 10 11.0929 -129.2926 -47.0839 117.7617 68.6299 -179.6847 176.9218 92.2879 -158.9275 -179.9800
State:	 10.495  14.710  -9.370  -0.211  0.974 -0.085 -114.048     11.09 -129.29  -47.08  117.76   68.63 -179.68  176.92   92.29 -158.93 -179.98

DOCKED: MODEL        5
DOCKED: USER    Run = 5
DOCKED: USER    DPF = D:/Protein_go_brrr/autodock/final/mut_Y35F/heme_O2/dock.dpf
DOCKED: USER  
DOCKED: USER    Estimated Free Energy of Binding    =   -3.44 kcal/mol  [=(1)+(2)+(3)-(4)]
DOCKED: USER    Estimated Inhibition Constant, Ki   =    3.01 mM (millimolar)  [Temperature = 298.15 K]
DOCKED: USER    
DOCKED: USER    (1) Final Intermolecular Energy     =   -6.42 kcal/mol
DOCKED: USER        vdW + Hbond + desolv Energy     =   -6.62 kcal/mol
DOCKED: USER        Electrostatic Energy            =   +0.19 kcal/mol
DOCKED: USER    (2) Final Total Internal Energy     =   -2.38 kcal/mol
DOCKED: USER    (3) Torsional Free Energy           =   +2.98 kcal/mol
DOCKED: USER    (4) Unbound System's Energy  [=(2)] =   -2.38 kcal/mol
DOCKED: USER    
DOCKED: USER    
DOCKED: USER    NEWDPF move heme_O2_opt.pdbqt
DOCKED: USER    NEWDPF about 8.287000 34.468000 -0.670000
DOCKED: USER    NEWDPF tran0 10.495417 14.709917 -9.370364
DOCKED: USER    NEWDPF quaternion0 -0.176720 0.816994 -0.071011 -0.544287
DOCKED: USER    NEWDPF axisangle0 -0.210657 0.973888 -0.084647 -114.048151
DOCKED: USER    NEWDPF quat0 -0.210657 0.973888 -0.084647 -114.048151
DOCKED: USER    NEWDPF dihe0 11.09 -129.29 -47.08 117.76 68.63 -179.68 176.92 92.29 -158.93 -179.98 
DOCKED: USER  keepresnum = 1 
DOCKED: USER  
DOCKED: REMARK  10 active torsions:
DOCKED: REMARK  status: ('A' for Active; 'I' for Inactive)
DOCKED: REMARK    1  A    between atoms: C_6  and  C_10 
DOCKED: REMARK    2  A    between atoms: C_10  and  C_11 
DOCKED: REMARK    3  A    between atoms: C_11  and  C_12 
DOCKED: REMARK    4  A    between atoms: C_12  and  O_14 
DOCKED: REMARK    5  A    between atoms: C_17  and  C_20 
DOCKED: REMARK    6  A    between atoms: C_24  and  C_27 
DOCKED: REMARK    7  A    between atoms: C_31  and  C_34 
DOCKED: REMARK    8  A    between atoms: C_34  and  C_35 
DOCKED: REMARK    9  A    between atoms: C_35  and  C_36 
DOCKED: REMARK   10  A    between atoms: C_36  and  O_38 
DOCKED: USER                              x       y       z     vdW  Elec       q    Type
DOCKED: USER                           _______ _______ _______ _____ _____    ______ ____
DOCKED: ROOT
DOCKED: ATOM      1  C   UNL d   1      10.282  15.892  -7.622 -0.17 -0.00    +0.064 A 
DOCKED: ATOM      2  C   UNL d   1      13.843  13.215  -9.270 -0.15 -0.02    +0.064 A 
DOCKED: ATOM      3  C   UNL d   1      11.240  11.951 -13.106 -0.18 -0.01    +0.064 C 
DOCKED: ATOM      4  C   UNL d   1       7.746  15.079 -11.665 -0.20 +0.00    +0.064 A 
DOCKED: ATOM      5  C   UNL d   1      11.463  15.268  -7.758 -0.22 -0.01    +0.066 A 
DOCKED: ATOM      6  C   UNL d   1      12.506  15.355  -6.830 -0.25 +0.01    -0.021 A 
DOCKED: ATOM      7  C   UNL d   1      13.553  14.616  -7.328 -0.21 +0.01    -0.025 A 
DOCKED: ATOM      8  C   UNL d   1      13.105  14.058  -8.522 -0.17 -0.01    +0.066 A 
DOCKED: ATOM      9  C   UNL d   1      14.914  14.496  -6.677 -0.20 -0.02    +0.051 C 
DOCKED: ATOM     10  C   UNL d   1      13.419  12.581 -10.519 -0.13 -0.02    +0.066 A 
DOCKED: ATOM     11  C   UNL d   1      14.161  11.589 -11.169 -0.17 +0.01    -0.021 A 
DOCKED: ATOM     12  C   UNL d   1      13.418  11.199 -12.268 -0.25 -0.00    +0.000 A 
DOCKED: ATOM     13  C   UNL d   1      12.245  12.002 -12.232 -0.18 -0.01    +0.070 A 
DOCKED: ATOM     14  C   UNL d   1      15.508  11.017 -10.744 -0.32 -0.02    +0.052 C 
DOCKED: ATOM     15  C   UNL d   1      10.052  12.771 -13.125 +0.01 -0.00    +0.066 A 
DOCKED: ATOM     16  C   UNL d   1       9.116  12.783 -14.159 -0.09 +0.00    -0.021 A 
DOCKED: ATOM     17  C   UNL d   1       8.111  13.668 -13.771 -0.18 +0.00    +0.000 A 
DOCKED: ATOM     18  C   UNL d   1       8.514  14.134 -12.511 -0.20 +0.00    +0.070 A 
DOCKED: ATOM     19  C   UNL d   1       9.291  11.999 -15.436 -0.11 -0.00    +0.052 C 
DOCKED: ATOM     20  C   UNL d   1       8.123  15.579 -10.473 -0.18 +0.01    +0.066 A 
DOCKED: ATOM     21  C   UNL d   1       7.349  16.452  -9.713 -0.17 -0.00    -0.025 A 
DOCKED: ATOM     22  C   UNL d   1       8.044  16.673  -8.545 -0.24 -0.00    -0.021 A 
DOCKED: ATOM     23  C   UNL d   1       9.229  15.938  -8.644 -0.25 +0.00    +0.066 A 
DOCKED: ATOM     24  C   UNL d   1       6.016  17.048 -10.085 -0.15 +0.01    +0.051 C 
DOCKED: ATOM     25  N   UNL d   1      11.841  14.513  -8.819 -0.12 +0.04    -0.248 N 
DOCKED: ATOM     26  N   UNL d   1      12.255  12.843 -11.167 -0.12 +0.05    -0.248 N 
DOCKED: ATOM     27  N   UNL d   1       9.729  13.637 -12.169 -0.15 +0.01    -0.248 N 
DOCKED: ATOM     28  N   UNL d   1       9.294  15.311  -9.836 -0.15 -0.00    -0.248 N 
DOCKED: ATOM     29 FE   UNL d   1      10.762  14.086 -10.499 -0.04 -0.00    +0.000 Fe
DOCKED: ATOM     30  O   UNL d   1      12.000  14.993 -10.761 -0.08 -0.00    +0.000 OA
DOCKED: ATOM     31  O   UNL d   1      10.648  15.280 -11.517 -0.10 -0.00    +0.000 OA
DOCKED: ENDROOT
DOCKED: BRANCH   6  32
DOCKED: ATOM     32  C   UNL d   1      12.569  16.210  -5.591 -0.18 -0.04    +0.052 C 
DOCKED: BRANCH  32  33
DOCKED: ATOM     33  C   UNL d   1      12.818  17.683  -5.900 -0.08 -0.08    +0.115 C 
DOCKED: BRANCH  33  34
DOCKED: ATOM     34  C   UNL d   1      13.071  17.929  -7.366 -0.05 -0.04    +0.139 C 
DOCKED: ATOM     35  O   UNL d   1      14.187  17.746  -7.825 +0.02 +0.18    -0.650 OA
DOCKED: BRANCH  34  36
DOCKED: ATOM     36  O   UNL d   1      12.094  18.375  -8.183 +0.04 +0.12    -0.776 OA
DOCKED: ATOM     37  H   UNL d   1      11.255  18.705  -7.843 +0.03 -0.02    +0.167 HD
DOCKED: ENDBRANCH  34  36
DOCKED: ENDBRANCH  33  34
DOCKED: ENDBRANCH  32  33
DOCKED: ENDBRANCH   6  32
DOCKED: BRANCH  22  38
DOCKED: ATOM     38  C   UNL d   1       7.616  17.592  -7.429 -0.20 +0.02    +0.052 C 
DOCKED: BRANCH  38  39
DOCKED: ATOM     39  C   UNL d   1       7.883  19.061  -7.751 -0.09 +0.02    +0.115 C 
DOCKED: BRANCH  39  40
DOCKED: ATOM     40  C   UNL d   1       9.261  19.503  -7.325 -0.05 +0.01    +0.139 C 
DOCKED: ATOM     41  O   UNL d   1       9.758  19.043  -6.310 +0.01 +0.00    -0.650 OA
DOCKED: BRANCH  40  42
DOCKED: ATOM     42  O   UNL d   1       9.978  20.363  -8.074 +0.03 +0.02    -0.776 OA
DOCKED: ATOM     43  H   UNL d   1      10.876  20.156  -8.358 +0.01 -0.01    +0.167 HD
DOCKED: ENDBRANCH  40  42
DOCKED: ENDBRANCH  39  40
DOCKED: ENDBRANCH  38  39
DOCKED: ENDBRANCH  22  38
DOCKED: BRANCH  12  44
DOCKED: ATOM     44  C   UNL d   1      13.897  10.124 -13.221 -0.31 -0.00    +0.004 C 
DOCKED: ATOM     45  C   UNL d   1      13.236   9.044 -13.636 -0.35 -0.00    +0.012 C 
DOCKED: ENDBRANCH  12  44
DOCKED: BRANCH  17  46
DOCKED: ATOM     46  C   UNL d   1       6.875  14.138 -14.491 -0.14 +0.00    +0.004 C 
DOCKED: ATOM     47  C   UNL d   1       5.596  13.867 -14.204 -0.20 +0.00    +0.012 C 
DOCKED: ENDBRANCH  17  46
DOCKED: TORSDOF 10
DOCKED: TER
DOCKED: ENDMDL
________________________________________________________________________________


	BEGINNING GENETIC ALGORITHM DOCKING 6 of 100
Run: 6 Seed: 1536340301 1740305527 [ Run 6 of 100 GA/GALS ]
Beginning LAMARCKIAN GENETIC ALGORITHM (LGA), with a maximum of 25000000 energy evaluations.

Final-Value: -9.004


	FINAL GENETIC ALGORITHM DOCKED STATE
	_______________________________________________


Detailed state:  trans -1.525 6.917 -13.574 quatxyzw -0.827990 0.407516 0.071012 -0.378578 center 8.287 34.468 -0.670 ntor 10 -19.6783 -5.7477 -23.7517 117.8675 18.5461 63.5134 -103.1001 -76.3722 -170.9506 -13.5029
State:	 -1.525   6.917 -13.574  -0.895  0.440  0.077 -135.509    -19.68   -5.75  -23.75  117.87   18.55   63.51 -103.10  -76.37 -170.95  -13.50

DOCKED: MODEL        6
DOCKED: USER    Run = 6
DOCKED: USER    DPF = D:/Protein_go_brrr/autodock/final/mut_Y35F/heme_O2/dock.dpf
DOCKED: USER  
DOCKED: USER    Estimated Free Energy of Binding    =   -4.11 kcal/mol  [=(1)+(2)+(3)-(4)]
DOCKED: USER    Estimated Inhibition Constant, Ki   =  973.67 uM (micromolar)  [Temperature = 298.15 K]
DOCKED: USER    
DOCKED: USER    (1) Final Intermolecular Energy     =   -7.09 kcal/mol
DOCKED: USER        vdW + Hbond + desolv Energy     =   -6.13 kcal/mol
DOCKED: USER        Electrostatic Energy            =   -0.96 kcal/mol
DOCKED: USER    (2) Final Total Internal Energy     =   -1.91 kcal/mol
DOCKED: USER    (3) Torsional Free Energy           =   +2.98 kcal/mol
DOCKED: USER    (4) Unbound System's Energy  [=(2)] =   -1.91 kcal/mol
DOCKED: USER    
DOCKED: USER    
DOCKED: USER    NEWDPF move heme_O2_opt.pdbqt
DOCKED: USER    NEWDPF about 8.287000 34.468000 -0.670000
DOCKED: USER    NEWDPF tran0 -1.525013 6.916501 -13.574174
DOCKED: USER    NEWDPF quaternion0 -0.827990 0.407516 0.071012 -0.378578
DOCKED: USER    NEWDPF axisangle0 -0.894573 0.440287 0.076723 -135.508782
DOCKED: USER    NEWDPF quat0 -0.894573 0.440287 0.076723 -135.508782
DOCKED: USER    NEWDPF dihe0 -19.68 -5.75 -23.75 117.87 18.55 63.51 -103.10 -76.37 -170.95 -13.50 
DOCKED: USER  keepresnum = 1 
DOCKED: USER  
DOCKED: REMARK  10 active torsions:
DOCKED: REMARK  status: ('A' for Active; 'I' for Inactive)
DOCKED: REMARK    1  A    between atoms: C_6  and  C_10 
DOCKED: REMARK    2  A    between atoms: C_10  and  C_11 
DOCKED: REMARK    3  A    between atoms: C_11  and  C_12 
DOCKED: REMARK    4  A    between atoms: C_12  and  O_14 
DOCKED: REMARK    5  A    between atoms: C_17  and  C_20 
DOCKED: REMARK    6  A    between atoms: C_24  and  C_27 
DOCKED: REMARK    7  A    between atoms: C_31  and  C_34 
DOCKED: REMARK    8  A    between atoms: C_34  and  C_35 
DOCKED: REMARK    9  A    between atoms: C_35  and  C_36 
DOCKED: REMARK   10  A    between atoms: C_36  and  O_38 
DOCKED: USER                              x       y       z     vdW  Elec       q    Type
DOCKED: USER                           _______ _______ _______ _____ _____    ______ ____
DOCKED: ROOT
DOCKED: ATOM      1  C   UNL d   1      -3.346   7.301 -12.557 -0.13 +0.00    +0.064 A 
DOCKED: ATOM      2  C   UNL d   1       0.121  10.149 -14.113 -0.17 -0.00    +0.064 A 
DOCKED: ATOM      3  C   UNL d   1       2.607   6.378 -15.756 -0.19 -0.01    +0.064 C 
DOCKED: ATOM      4  C   UNL d   1      -1.174   3.480 -14.587 -0.11 +0.00    +0.064 A 
DOCKED: ATOM      5  C   UNL d   1      -2.607   8.383 -12.848 -0.15 -0.00    +0.066 A 
DOCKED: ATOM      6  C   UNL d   1      -2.968   9.691 -12.513 -0.14 +0.00    -0.021 A 
DOCKED: ATOM      7  C   UNL d   1      -1.986  10.521 -13.001 -0.16 +0.00    -0.025 A 
DOCKED: ATOM      8  C   UNL d   1      -1.028   9.692 -13.579 -0.19 -0.00    +0.066 A 
DOCKED: ATOM      9  C   UNL d   1      -2.013  12.032 -12.926 -0.13 -0.00    +0.051 C 
DOCKED: ATOM     10  C   UNL d   1       1.174   9.328 -14.712 -0.24 -0.01    +0.066 A 
DOCKED: ATOM     11  C   UNL d   1       2.418   9.836 -15.104 -0.24 +0.00    -0.021 A 
DOCKED: ATOM     12  C   UNL d   1       3.155   8.761 -15.564 -0.24 -0.00    +0.000 A 
DOCKED: ATOM     13  C   UNL d   1       2.296   7.634 -15.435 -0.18 -0.02    +0.070 A 
DOCKED: ATOM     14  C   UNL d   1       2.892  11.282 -15.018 -0.18 -0.00    +0.052 C 
DOCKED: ATOM     15  C   UNL d   1       1.755   5.217 -15.674 -0.07 -0.01    +0.066 A 
DOCKED: ATOM     16  C   UNL d   1       2.083   3.959 -16.179 -0.14 +0.00    -0.021 A 
DOCKED: ATOM     17  C   UNL d   1       1.019   3.116 -15.858 -0.10 -0.00    +0.000 A 
DOCKED: ATOM     18  C   UNL d   1       0.111   3.933 -15.171 -0.07 -0.00    +0.070 A 
DOCKED: ATOM     19  C   UNL d   1       3.343   3.689 -16.962 -0.14 -0.00    +0.052 C 
DOCKED: ATOM     20  C   UNL d   1      -2.088   4.246 -13.960 -0.12 +0.00    +0.066 A 
DOCKED: ATOM     21  C   UNL d   1      -3.273   3.759 -13.415 -0.08 -0.00    -0.025 A 
DOCKED: ATOM     22  C   UNL d   1      -3.892   4.828 -12.809 -0.09 -0.00    -0.021 A 
DOCKED: ATOM     23  C   UNL d   1      -3.067   5.937 -13.023 -0.11 +0.00    +0.066 A 
DOCKED: ATOM     24  C   UNL d   1      -3.790   2.344 -13.474 -0.05 +0.00    +0.051 C 
DOCKED: ATOM     25  N   UNL d   1      -1.442   8.381 -13.542 -0.12 +0.01    -0.248 N 
DOCKED: ATOM     26  N   UNL d   1       1.092   7.989 -14.921 -0.18 +0.04    -0.248 N 
DOCKED: ATOM     27  N   UNL d   1       0.539   5.221 -15.134 -0.11 +0.01    -0.248 N 
DOCKED: ATOM     28  N   UNL d   1      -1.994   5.587 -13.762 -0.10 +0.00    -0.248 N 
DOCKED: ATOM     29 FE   UNL d   1      -0.461   6.777 -14.338 -0.05 -0.00    +0.000 Fe
DOCKED: ATOM     30  O   UNL d   1      -1.044   7.750 -15.405 -0.11 -0.00    +0.000 OA
DOCKED: ATOM     31  O   UNL d   1      -1.122   6.195 -15.641 -0.10 -0.00    +0.000 OA
DOCKED: ENDROOT
DOCKED: BRANCH   6  32
DOCKED: ATOM     32  C   UNL d   1      -4.253  10.160 -11.880 -0.09 -0.00    +0.052 C 
DOCKED: BRANCH  32  33
DOCKED: ATOM     33  C   UNL d   1      -5.349  10.443 -12.903 -0.01 -0.00    +0.115 C 
DOCKED: BRANCH  33  34
DOCKED: ATOM     34  C   UNL d   1      -5.951   9.179 -13.465 -0.00 +0.00    +0.139 C 
DOCKED: ATOM     35  O   UNL d   1      -6.095   9.063 -14.671 +0.01 -0.00    -0.650 OA
DOCKED: BRANCH  34  36
DOCKED: ATOM     36  O   UNL d   1      -6.362   8.177 -12.660 +0.04 -0.06    -0.776 OA
DOCKED: ATOM     37  H   UNL d   1      -6.054   8.094 -11.750 +0.03 +0.03    +0.167 HD
DOCKED: ENDBRANCH  34  36
DOCKED: ENDBRANCH  33  34
DOCKED: ENDBRANCH  32  33
DOCKED: ENDBRANCH   6  32
DOCKED: BRANCH  22  38
DOCKED: ATOM     38  C   UNL d   1      -5.232   4.793 -12.121 -0.06 +0.01    +0.052 C 
DOCKED: BRANCH  38  39
DOCKED: ATOM     39  C   UNL d   1      -5.118   4.423 -10.644 -0.17 +0.03    +0.115 C 
DOCKED: BRANCH  39  40
DOCKED: ATOM     40  C   UNL d   1      -5.243   5.622  -9.737 -0.19 +0.09    +0.139 C 
DOCKED: ATOM     41  O   UNL d   1      -4.692   5.619  -8.648 -0.34 -0.52    -0.650 OA
DOCKED: BRANCH  40  42
DOCKED: ATOM     42  O   UNL d   1      -5.913   6.723 -10.129 -0.48 -0.60    -0.776 OA
DOCKED: ATOM     43  H   UNL d   1      -6.295   6.794 -11.012 +0.03 +0.07    +0.167 HD
DOCKED: ENDBRANCH  40  42
DOCKED: ENDBRANCH  39  40
DOCKED: ENDBRANCH  38  39
DOCKED: ENDBRANCH  22  38
DOCKED: BRANCH  12  44
DOCKED: ATOM     44  C   UNL d   1       4.573   8.917 -16.072 -0.24 -0.00    +0.004 C 
DOCKED: ATOM     45  C   UNL d   1       5.553   8.014 -16.057 -0.28 -0.00    +0.012 C 
DOCKED: ENDBRANCH  12  44
DOCKED: BRANCH  17  46
DOCKED: ATOM     46  C   UNL d   1       0.772   1.667 -16.186 -0.08 +0.00    +0.004 C 
DOCKED: ATOM     47  C   UNL d   1       0.764   0.619 -15.353 -0.09 +0.00    +0.012 C 
DOCKED: ENDBRANCH  17  46
DOCKED: TORSDOF 10
DOCKED: TER
DOCKED: ENDMDL
________________________________________________________________________________


	BEGINNING GENETIC ALGORITHM DOCKING 7 of 100
Run: 7 Seed: 1339097957 517874935 [ Run 7 of 100 GA/GALS ]
Beginning LAMARCKIAN GENETIC ALGORITHM (LGA), with a maximum of 25000000 energy evaluations.

Final-Value: -10.036


	FINAL GENETIC ALGORITHM DOCKED STATE
	_______________________________________________


Detailed state:  trans -17.206 -1.820 -1.110 quatxyzw -0.496728 0.071919 0.267907 -0.822383 center 8.287 34.468 -0.670 ntor 10 39.3401 -144.7667 136.3868 129.0955 139.6176 -70.6669 -112.9303 -97.5712 -40.4413 -4.0838
State:	-17.206  -1.820  -1.110  -0.873  0.126  0.471 -69.352     39.34 -144.77  136.39  129.10  139.62  -70.67 -112.93  -97.57  -40.44   -4.08

DOCKED: MODEL        7
DOCKED: USER    Run = 7
DOCKED: USER    DPF = D:/Protein_go_brrr/autodock/final/mut_Y35F/heme_O2/dock.dpf
DOCKED: USER  
DOCKED: USER    Estimated Free Energy of Binding    =   -5.22 kcal/mol  [=(1)+(2)+(3)-(4)]
DOCKED: USER    Estimated Inhibition Constant, Ki   =  148.74 uM (micromolar)  [Temperature = 298.15 K]
DOCKED: USER    
DOCKED: USER    (1) Final Intermolecular Energy     =   -8.20 kcal/mol
DOCKED: USER        vdW + Hbond + desolv Energy     =   -7.01 kcal/mol
DOCKED: USER        Electrostatic Energy            =   -1.20 kcal/mol
DOCKED: USER    (2) Final Total Internal Energy     =   -1.83 kcal/mol
DOCKED: USER    (3) Torsional Free Energy           =   +2.98 kcal/mol
DOCKED: USER    (4) Unbound System's Energy  [=(2)] =   -1.83 kcal/mol
DOCKED: USER    
DOCKED: USER    
DOCKED: USER    NEWDPF move heme_O2_opt.pdbqt
DOCKED: USER    NEWDPF about 8.287000 34.468000 -0.670000
DOCKED: USER    NEWDPF tran0 -17.205559 -1.819685 -1.110467
DOCKED: USER    NEWDPF quaternion0 -0.496728 0.071919 0.267907 -0.822383
DOCKED: USER    NEWDPF axisangle0 -0.873086 0.126410 0.470894 -69.351842
DOCKED: USER    NEWDPF quat0 -0.873086 0.126410 0.470894 -69.351842
DOCKED: USER    NEWDPF dihe0 39.34 -144.77 136.39 129.10 139.62 -70.67 -112.93 -97.57 -40.44 -4.08 
DOCKED: USER  keepresnum = 1 
DOCKED: USER  
DOCKED: REMARK  10 active torsions:
DOCKED: REMARK  status: ('A' for Active; 'I' for Inactive)
DOCKED: REMARK    1  A    between atoms: C_6  and  C_10 
DOCKED: REMARK    2  A    between atoms: C_10  and  C_11 
DOCKED: REMARK    3  A    between atoms: C_11  and  C_12 
DOCKED: REMARK    4  A    between atoms: C_12  and  O_14 
DOCKED: REMARK    5  A    between atoms: C_17  and  C_20 
DOCKED: REMARK    6  A    between atoms: C_24  and  C_27 
DOCKED: REMARK    7  A    between atoms: C_31  and  C_34 
DOCKED: REMARK    8  A    between atoms: C_34  and  C_35 
DOCKED: REMARK    9  A    between atoms: C_35  and  C_36 
DOCKED: REMARK   10  A    between atoms: C_36  and  O_38 
DOCKED: USER                              x       y       z     vdW  Elec       q    Type
DOCKED: USER                           _______ _______ _______ _____ _____    ______ ____
DOCKED: ROOT
DOCKED: ATOM      1  C   UNL d   1     -18.978  -2.976  -1.257 +0.03 +0.04    +0.064 A 
DOCKED: ATOM      2  C   UNL d   1     -17.135  -0.361   2.253 -0.24 +0.02    +0.064 A 
DOCKED: ATOM      3  C   UNL d   1     -13.325   0.755  -0.454 -0.24 +0.01    +0.064 C 
DOCKED: ATOM      4  C   UNL d   1     -15.441  -1.542  -4.236 -0.13 +0.01    +0.064 A 
DOCKED: ATOM      5  C   UNL d   1     -18.788  -2.354  -0.082 -0.06 +0.04    +0.066 A 
DOCKED: ATOM      6  C   UNL d   1     -19.667  -2.444   1.001 -0.12 -0.01    -0.021 A 
DOCKED: ATOM      7  C   UNL d   1     -19.157  -1.652   2.003 -0.18 -0.01    -0.025 A 
DOCKED: ATOM      8  C   UNL d   1     -17.955  -1.139   1.522 -0.20 +0.02    +0.066 A 
DOCKED: ATOM      9  C   UNL d   1     -19.830  -1.398   3.334 -0.10 +0.01    +0.051 C 
DOCKED: ATOM     10  C   UNL d   1     -15.853   0.188   1.811 -0.22 +0.02    +0.066 A 
DOCKED: ATOM     11  C   UNL d   1     -14.965   0.853   2.663 -0.30 -0.01    -0.021 A 
DOCKED: ATOM     12  C   UNL d   1     -13.852   1.167   1.905 -0.34 +0.00    +0.000 A 
DOCKED: ATOM     13  C   UNL d   1     -14.135   0.676   0.601 -0.24 +0.01    +0.070 A 
DOCKED: ATOM     14  C   UNL d   1     -15.158   1.153   4.145 -0.30 +0.01    +0.052 C 
DOCKED: ATOM     15  C   UNL d   1     -13.588   0.302  -1.798 -0.27 +0.01    +0.066 A 
DOCKED: ATOM     16  C   UNL d   1     -12.768   0.561  -2.895 -0.29 -0.00    -0.021 A 
DOCKED: ATOM     17  C   UNL d   1     -13.352  -0.083  -3.986 -0.24 +0.00    +0.000 A 
DOCKED: ATOM     18  C   UNL d   1     -14.499  -0.697  -3.464 -0.19 +0.01    +0.070 A 
DOCKED: ATOM     19  C   UNL d   1     -11.543   1.437  -2.817 -0.18 -0.00    +0.052 C 
DOCKED: ATOM     20  C   UNL d   1     -16.574  -2.110  -3.778 -0.11 +0.01    +0.066 A 
DOCKED: ATOM     21  C   UNL d   1     -17.413  -2.910  -4.549 -0.07 -0.00    -0.025 A 
DOCKED: ATOM     22  C   UNL d   1     -18.411  -3.350  -3.709 -0.07 -0.00    -0.021 A 
DOCKED: ATOM     23  C   UNL d   1     -18.154  -2.784  -2.456 +0.00 +0.03    +0.066 A 
DOCKED: ATOM     24  C   UNL d   1     -17.271  -3.235  -6.013 -0.05 +0.00    +0.051 C 
DOCKED: ATOM     25  N   UNL d   1     -17.762  -1.520   0.214 -0.08 -0.12    -0.248 N 
DOCKED: ATOM     26  N   UNL d   1     -15.357   0.085   0.551 -0.12 -0.06    -0.248 N 
DOCKED: ATOM     27  N   UNL d   1     -14.667  -0.391  -2.153 -0.15 -0.04    -0.248 N 
DOCKED: ATOM     28  N   UNL d   1     -17.061  -1.995  -2.514 -0.05 -0.08    -0.248 N 
DOCKED: ATOM     29 FE   UNL d   1     -16.213  -0.961  -0.995 -0.05 +0.00    +0.000 Fe
DOCKED: ATOM     30  O   UNL d   1     -17.195   0.198  -0.656 -0.10 +0.00    +0.000 OA
DOCKED: ATOM     31  O   UNL d   1     -16.603   0.075  -2.111 -0.10 +0.00    +0.000 OA
DOCKED: ENDROOT
DOCKED: BRANCH   6  32
DOCKED: ATOM     32  C   UNL d   1     -21.005  -3.134   1.050 -0.06 +0.01    +0.052 C 
DOCKED: BRANCH  32  33
DOCKED: ATOM     33  C   UNL d   1     -20.989  -4.505   0.380 -0.07 +0.04    +0.115 C 
DOCKED: BRANCH  33  34
DOCKED: ATOM     34  C   UNL d   1     -20.094  -5.485   1.097 -0.14 +0.08    +0.139 C 
DOCKED: ATOM     35  O   UNL d   1     -19.333  -5.085   1.964 -0.15 -0.50    -0.650 OA
DOCKED: BRANCH  34  36
DOCKED: ATOM     36  O   UNL d   1     -20.094  -6.797   0.784 -0.01 -0.18    -0.776 OA
DOCKED: ATOM     37  H   UNL d   1     -20.157  -7.105  -0.128 +0.04 +0.03    +0.167 HD
DOCKED: ENDBRANCH  34  36
DOCKED: ENDBRANCH  33  34
DOCKED: ENDBRANCH  32  33
DOCKED: ENDBRANCH   6  32
DOCKED: BRANCH  22  38
DOCKED: ATOM     38  C   UNL d   1     -19.580  -4.212  -4.110 -0.03 +0.01    +0.052 C 
DOCKED: BRANCH  38  39
DOCKED: ATOM     39  C   UNL d   1     -19.351  -5.688  -3.792 -0.05 +0.01    +0.115 C 
DOCKED: BRANCH  39  40
DOCKED: ATOM     40  C   UNL d   1     -19.635  -6.017  -2.348 -0.09 +0.04    +0.139 C 
DOCKED: ATOM     41  O   UNL d   1     -20.789  -6.070  -1.954 +0.00 -0.10    -0.650 OA
DOCKED: BRANCH  40  42
DOCKED: ATOM     42  O   UNL d   1     -18.637  -6.305  -1.490 -0.33 -0.60    -0.776 OA
DOCKED: ATOM     43  H   UNL d   1     -18.734  -6.984  -0.813 -0.09 +0.05    +0.167 HD
DOCKED: ENDBRANCH  40  42
DOCKED: ENDBRANCH  39  40
DOCKED: ENDBRANCH  38  39
DOCKED: ENDBRANCH  22  38
DOCKED: BRANCH  12  44
DOCKED: ATOM     44  C   UNL d   1     -12.659   1.893   2.492 -0.49 +0.00    +0.004 C 
DOCKED: ATOM     45  C   UNL d   1     -12.658   2.993   3.244 -0.41 +0.00    +0.012 C 
DOCKED: ENDBRANCH  12  44
DOCKED: BRANCH  17  46
DOCKED: ATOM     46  C   UNL d   1     -12.961  -0.117  -5.439 -0.19 +0.00    +0.004 C 
DOCKED: ATOM     47  C   UNL d   1     -12.683  -1.186  -6.198 -0.20 +0.00    +0.012 C 
DOCKED: ENDBRANCH  17  46
DOCKED: TORSDOF 10
DOCKED: TER
DOCKED: ENDMDL
________________________________________________________________________________


	BEGINNING GENETIC ALGORITHM DOCKING 8 of 100
Run: 8 Seed: 1362002832 533056320 [ Run 8 of 100 GA/GALS ]
Beginning LAMARCKIAN GENETIC ALGORITHM (LGA), with a maximum of 25000000 energy evaluations.

Final-Value: -10.670


	FINAL GENETIC ALGORITHM DOCKED STATE
	_______________________________________________


Detailed state:  trans 11.092 0.981 11.263 quatxyzw 0.501324 0.137224 -0.518107 -0.679271 center 8.287 34.468 -0.670 ntor 10 -152.7721 -79.0392 26.9577 127.5647 -104.6188 136.3734 119.3533 -136.4105 -1.0227 -29.7770
State:	 11.092   0.981  11.263   0.683  0.187 -0.706 -94.427   -152.77  -79.04   26.96  127.56 -104.62  136.37  119.35 -136.41   -1.02  -29.78

DOCKED: MODEL        8
DOCKED: USER    Run = 8
DOCKED: USER    DPF = D:/Protein_go_brrr/autodock/final/mut_Y35F/heme_O2/dock.dpf
DOCKED: USER  
DOCKED: USER    Estimated Free Energy of Binding    =   -5.55 kcal/mol  [=(1)+(2)+(3)-(4)]
DOCKED: USER    Estimated Inhibition Constant, Ki   =   85.00 uM (micromolar)  [Temperature = 298.15 K]
DOCKED: USER    
DOCKED: USER    (1) Final Intermolecular Energy     =   -8.54 kcal/mol
DOCKED: USER        vdW + Hbond + desolv Energy     =   -5.62 kcal/mol
DOCKED: USER        Electrostatic Energy            =   -2.92 kcal/mol
DOCKED: USER    (2) Final Total Internal Energy     =   -2.13 kcal/mol
DOCKED: USER    (3) Torsional Free Energy           =   +2.98 kcal/mol
DOCKED: USER    (4) Unbound System's Energy  [=(2)] =   -2.13 kcal/mol
DOCKED: USER    
DOCKED: USER    
DOCKED: USER    NEWDPF move heme_O2_opt.pdbqt
DOCKED: USER    NEWDPF about 8.287000 34.468000 -0.670000
DOCKED: USER    NEWDPF tran0 11.091773 0.980655 11.263067
DOCKED: USER    NEWDPF quaternion0 0.501324 0.137224 -0.518107 -0.679271
DOCKED: USER    NEWDPF axisangle0 0.683107 0.186983 -0.705976 -94.426671
DOCKED: USER    NEWDPF quat0 0.683107 0.186983 -0.705976 -94.426671
DOCKED: USER    NEWDPF dihe0 -152.77 -79.04 26.96 127.56 -104.62 136.37 119.35 -136.41 -1.02 -29.78 
DOCKED: USER  keepresnum = 1 
DOCKED: USER  
DOCKED: REMARK  10 active torsions:
DOCKED: REMARK  status: ('A' for Active; 'I' for Inactive)
DOCKED: REMARK    1  A    between atoms: C_6  and  C_10 
DOCKED: REMARK    2  A    between atoms: C_10  and  C_11 
DOCKED: REMARK    3  A    between atoms: C_11  and  C_12 
DOCKED: REMARK    4  A    between atoms: C_12  and  O_14 
DOCKED: REMARK    5  A    between atoms: C_17  and  C_20 
DOCKED: REMARK    6  A    between atoms: C_24  and  C_27 
DOCKED: REMARK    7  A    between atoms: C_31  and  C_34 
DOCKED: REMARK    8  A    between atoms: C_34  and  C_35 
DOCKED: REMARK    9  A    between atoms: C_35  and  C_36 
DOCKED: REMARK   10  A    between atoms: C_36  and  O_38 
DOCKED: USER                              x       y       z     vdW  Elec       q    Type
DOCKED: USER                           _______ _______ _______ _____ _____    ______ ____
DOCKED: ROOT
DOCKED: ATOM      1  C   UNL d   1      11.069   2.674  12.540 -0.06 +0.06    +0.064 A 
DOCKED: ATOM      2  C   UNL d   1       8.040  -0.935  11.945 -0.10 +0.00    +0.064 A 
DOCKED: ATOM      3  C   UNL d   1      10.819  -2.822   8.508 -0.28 +0.01    +0.064 C 
DOCKED: ATOM      4  C   UNL d   1      14.178   0.628   9.444 -0.07 +0.02    +0.064 A 
DOCKED: ATOM      5  C   UNL d   1      10.019   1.846  12.660 -0.07 +0.04    +0.066 A 
DOCKED: ATOM      6  C   UNL d   1       8.956   2.052  13.544 -0.06 -0.01    -0.021 A 
DOCKED: ATOM      7  C   UNL d   1       8.100   0.985  13.403 -0.06 -0.00    -0.025 A 
DOCKED: ATOM      8  C   UNL d   1       8.639   0.181  12.403 -0.09 +0.02    +0.066 A 
DOCKED: ATOM      9  C   UNL d   1       6.850   0.763  14.227 -0.04 -0.00    +0.051 C 
DOCKED: ATOM     10  C   UNL d   1       8.545  -1.806  10.882 -0.17 +0.01    +0.066 A 
DOCKED: ATOM     11  C   UNL d   1       7.805  -2.859  10.333 -0.26 +0.00    -0.021 A 
DOCKED: ATOM     12  C   UNL d   1       8.582  -3.404   9.328 -0.33 +0.00    +0.000 A 
DOCKED: ATOM     13  C   UNL d   1       9.784  -2.643   9.329 -0.21 +0.01    +0.070 A 
DOCKED: ATOM     14  C   UNL d   1       6.404  -3.308  10.732 -0.22 -0.02    +0.052 C 
DOCKED: ATOM     15  C   UNL d   1      12.067  -2.097   8.500 -0.23 +0.02    +0.066 A 
DOCKED: ATOM     16  C   UNL d   1      13.174  -2.439   7.725 -0.26 -0.00    -0.021 A 
DOCKED: ATOM     17  C   UNL d   1      14.145  -1.469   7.976 -0.17 +0.00    +0.000 A 
DOCKED: ATOM     18  C   UNL d   1      13.548  -0.596   8.896 -0.13 +0.02    +0.070 A 
DOCKED: ATOM     19  C   UNL d   1      13.227  -3.677   6.866 -0.11 +0.02    +0.052 C 
DOCKED: ATOM     20  C   UNL d   1      13.651   1.463  10.360 -0.08 +0.04    +0.066 A 
DOCKED: ATOM     21  C   UNL d   1      14.285   2.612  10.825 -0.05 -0.01    -0.025 A 
DOCKED: ATOM     22  C   UNL d   1      13.403   3.222  11.688 -0.06 -0.01    -0.021 A 
DOCKED: ATOM     23  C   UNL d   1      12.265   2.411  11.731 -0.04 +0.06    +0.066 A 
DOCKED: ATOM     24  C   UNL d   1      15.665   3.100  10.468 -0.01 +0.02    +0.051 C 
DOCKED: ATOM     25  N   UNL d   1       9.854   0.678  11.991 -0.07 -0.13    -0.248 N 
DOCKED: ATOM     26  N   UNL d   1       9.755  -1.676  10.281 -0.13 -0.06    -0.248 N 
DOCKED: ATOM     27  N   UNL d   1      12.316  -1.034   9.260 -0.12 -0.08    -0.248 N 
DOCKED: ATOM     28  N   UNL d   1      12.438   1.319  10.957 -0.08 -0.19    -0.248 N 
DOCKED: ATOM     29 FE   UNL d   1      11.109  -0.169  10.620 -0.04 +0.00    +0.000 Fe
DOCKED: ATOM     30  O   UNL d   1      11.003  -0.967  11.952 -0.08 +0.00    +0.000 OA
DOCKED: ATOM     31  O   UNL d   1      12.399  -0.821  11.238 -0.08 +0.00    +0.000 OA
DOCKED: ENDROOT
DOCKED: BRANCH   6  32
DOCKED: ATOM     32  C   UNL d   1       8.815   3.136  14.581 -0.03 +0.01    +0.052 C 
DOCKED: BRANCH  32  33
DOCKED: ATOM     33  C   UNL d   1       8.286   4.444  14.001 -0.07 +0.04    +0.115 C 
DOCKED: BRANCH  33  34
DOCKED: ATOM     34  C   UNL d   1       9.221   5.040  12.978 -0.08 +0.11    +0.139 C 
DOCKED: ATOM     35  O   UNL d   1       8.949   4.957  11.791 -0.49 -1.05    -0.650 OA
DOCKED: BRANCH  34  36
DOCKED: ATOM     36  O   UNL d   1      10.372   5.641  13.343 -0.01 -0.47    -0.776 OA
DOCKED: ATOM     37  H   UNL d   1      10.776   6.337  12.812 +0.02 +0.11    +0.167 HD
DOCKED: ENDBRANCH  34  36
DOCKED: ENDBRANCH  33  34
DOCKED: ENDBRANCH  32  33
DOCKED: ENDBRANCH   6  32
DOCKED: BRANCH  22  38
DOCKED: ATOM     38  C   UNL d   1      13.670   4.481  12.473 -0.03 +0.02    +0.052 C 
DOCKED: BRANCH  38  39
DOCKED: ATOM     39  C   UNL d   1      13.682   5.726  11.589 -0.02 +0.06    +0.115 C 
DOCKED: BRANCH  39  40
DOCKED: ATOM     40  C   UNL d   1      12.569   5.722  10.571 -0.03 +0.16    +0.139 C 
DOCKED: ATOM     41  O   UNL d   1      12.680   5.055   9.555 -0.12 -1.05    -0.650 OA
DOCKED: BRANCH  40  42
DOCKED: ATOM     42  O   UNL d   1      11.426   6.402  10.787 +0.00 -0.93    -0.776 OA
DOCKED: ATOM     43  H   UNL d   1      10.749   6.073  11.390 +0.01 +0.24    +0.167 HD
DOCKED: ENDBRANCH  40  42
DOCKED: ENDBRANCH  39  40
DOCKED: ENDBRANCH  38  39
DOCKED: ENDBRANCH  22  38
DOCKED: BRANCH  12  44
DOCKED: ATOM     44  C   UNL d   1       8.109  -4.573   8.490 -0.37 -0.00    +0.004 C 
DOCKED: ATOM     45  C   UNL d   1       8.850  -5.444   7.806 -0.38 +0.00    +0.012 C 
DOCKED: ENDBRANCH  12  44
DOCKED: BRANCH  17  46
DOCKED: ATOM     46  C   UNL d   1      15.561  -1.337   7.481 -0.14 +0.00    +0.004 C 
DOCKED: ATOM     47  C   UNL d   1      16.104  -0.331   6.784 -0.12 +0.00    +0.012 C 
DOCKED: ENDBRANCH  17  46
DOCKED: TORSDOF 10
DOCKED: TER
DOCKED: ENDMDL
________________________________________________________________________________


	BEGINNING GENETIC ALGORITHM DOCKING 9 of 100
Run: 9 Seed: 31854798 1968777510 [ Run 9 of 100 GA/GALS ]
Beginning LAMARCKIAN GENETIC ALGORITHM (LGA), with a maximum of 25000000 energy evaluations.

Final-Value: -10.533


	FINAL GENETIC ALGORITHM DOCKED STATE
	_______________________________________________


Detailed state:  trans -15.320 9.646 9.259 quatxyzw 0.628195 0.569386 -0.025457 -0.529645 center 8.287 34.468 -0.670 ntor 10 80.2153 19.6712 56.4005 120.5080 11.3981 -72.2413 -136.9630 -176.7252 155.0767 158.0686
State:	-15.320   9.646   9.259   0.741  0.671 -0.030 -116.037     80.22   19.67   56.40  120.51   11.40  -72.24 -136.96 -176.73  155.08  158.07

DOCKED: MODEL        9
DOCKED: USER    Run = 9
DOCKED: USER    DPF = D:/Protein_go_brrr/autodock/final/mut_Y35F/heme_O2/dock.dpf
DOCKED: USER  
DOCKED: USER    Estimated Free Energy of Binding    =   -6.07 kcal/mol  [=(1)+(2)+(3)-(4)]
DOCKED: USER    Estimated Inhibition Constant, Ki   =   35.81 uM (micromolar)  [Temperature = 298.15 K]
DOCKED: USER    
DOCKED: USER    (1) Final Intermolecular Energy     =   -9.05 kcal/mol
DOCKED: USER        vdW + Hbond + desolv Energy     =   -4.71 kcal/mol
DOCKED: USER        Electrostatic Energy            =   -4.34 kcal/mol
DOCKED: USER    (2) Final Total Internal Energy     =   -1.49 kcal/mol
DOCKED: USER    (3) Torsional Free Energy           =   +2.98 kcal/mol
DOCKED: USER    (4) Unbound System's Energy  [=(2)] =   -1.49 kcal/mol
DOCKED: USER    
DOCKED: USER    
DOCKED: USER    NEWDPF move heme_O2_opt.pdbqt
DOCKED: USER    NEWDPF about 8.287000 34.468000 -0.670000
DOCKED: USER    NEWDPF tran0 -15.320244 9.646329 9.259219
DOCKED: USER    NEWDPF quaternion0 0.628195 0.569386 -0.025457 -0.529645
DOCKED: USER    NEWDPF axisangle0 0.740604 0.671272 -0.030013 -116.037119
DOCKED: USER    NEWDPF quat0 0.740604 0.671272 -0.030013 -116.037119
DOCKED: USER    NEWDPF dihe0 80.22 19.67 56.40 120.51 11.40 -72.24 -136.96 -176.73 155.08 158.07 
DOCKED: USER  keepresnum = 1 
DOCKED: USER  
DOCKED: REMARK  10 active torsions:
DOCKED: REMARK  status: ('A' for Active; 'I' for Inactive)
DOCKED: REMARK    1  A    between atoms: C_6  and  C_10 
DOCKED: REMARK    2  A    between atoms: C_10  and  C_11 
DOCKED: REMARK    3  A    between atoms: C_11  and  C_12 
DOCKED: REMARK    4  A    between atoms: C_12  and  O_14 
DOCKED: REMARK    5  A    between atoms: C_17  and  C_20 
DOCKED: REMARK    6  A    between atoms: C_24  and  C_27 
DOCKED: REMARK    7  A    between atoms: C_31  and  C_34 
DOCKED: REMARK    8  A    between atoms: C_34  and  C_35 
DOCKED: REMARK    9  A    between atoms: C_35  and  C_36 
DOCKED: REMARK   10  A    between atoms: C_36  and  O_38 
DOCKED: USER                              x       y       z     vdW  Elec       q    Type
DOCKED: USER                           _______ _______ _______ _____ _____    ______ ____
DOCKED: ROOT
DOCKED: ATOM      1  C   UNL d   1     -15.985   9.041  11.180 -0.05 +0.06    +0.064 A 
DOCKED: ATOM      2  C   UNL d   1     -15.481   6.704   7.076 -0.04 +0.04    +0.064 A 
DOCKED: ATOM      3  C   UNL d   1     -13.970  10.702   4.879 -0.03 +0.01    +0.064 C 
DOCKED: ATOM      4  C   UNL d   1     -14.029  13.006   9.210 -0.04 +0.02    +0.064 A 
DOCKED: ATOM      5  C   UNL d   1     -15.970   8.078  10.244 -0.05 +0.06    +0.066 A 
DOCKED: ATOM      6  C   UNL d   1     -16.366   6.758  10.471 -0.06 -0.02    -0.021 A 
DOCKED: ATOM      7  C   UNL d   1     -16.180   6.070   9.295 -0.09 -0.02    -0.025 A 
DOCKED: ATOM      8  C   UNL d   1     -15.720   7.001   8.368 -0.05 +0.05    +0.066 A 
DOCKED: ATOM      9  C   UNL d   1     -16.412   4.586   9.114 -0.17 +0.05    +0.051 C 
DOCKED: ATOM     10  C   UNL d   1     -15.020   7.642   6.052 -0.02 +0.03    +0.066 A 
DOCKED: ATOM     11  C   UNL d   1     -14.945   7.321   4.692 -0.04 -0.01    -0.021 A 
DOCKED: ATOM     12  C   UNL d   1     -14.528   8.467   4.039 -0.05 +0.00    +0.000 A 
DOCKED: ATOM     13  C   UNL d   1     -14.357   9.440   5.063 -0.02 +0.02    +0.070 A 
DOCKED: ATOM     14  C   UNL d   1     -15.282   5.986   4.039 -0.06 +0.01    +0.052 C 
DOCKED: ATOM     15  C   UNL d   1     -13.751  11.708   5.891 -0.04 +0.01    +0.066 A 
DOCKED: ATOM     16  C   UNL d   1     -13.188  12.961   5.652 -0.10 -0.00    -0.021 A 
DOCKED: ATOM     17  C   UNL d   1     -13.194  13.635   6.872 -0.12 +0.00    +0.000 A 
DOCKED: ATOM     18  C   UNL d   1     -13.769  12.732   7.777 -0.05 +0.01    +0.070 A 
DOCKED: ATOM     19  C   UNL d   1     -12.650  13.377   4.306 -0.13 -0.00    +0.052 C 
DOCKED: ATOM     20  C   UNL d   1     -14.539  12.148  10.114 -0.06 +0.03    +0.066 A 
DOCKED: ATOM     21  C   UNL d   1     -14.777  12.470  11.447 -0.04 -0.01    -0.025 A 
DOCKED: ATOM     22  C   UNL d   1     -15.360  11.360  12.018 -0.04 -0.01    -0.021 A 
DOCKED: ATOM     23  C   UNL d   1     -15.439  10.392  11.011 -0.05 +0.06    +0.066 A 
DOCKED: ATOM     24  C   UNL d   1     -14.462  13.768  12.143 -0.02 +0.01    +0.051 C 
DOCKED: ATOM     25  N   UNL d   1     -15.529   8.223   8.970 -0.04 -0.24    -0.248 N 
DOCKED: ATOM     26  N   UNL d   1     -14.654   8.929   6.284 -0.00 -0.11    -0.248 N 
DOCKED: ATOM     27  N   UNL d   1     -14.032  11.541   7.180 -0.01 -0.08    -0.248 N 
DOCKED: ATOM     28  N   UNL d   1     -14.898  10.860   9.868 -0.05 -0.22    -0.248 N 
DOCKED: ATOM     29 FE   UNL d   1     -14.775   9.904   8.088 -0.01 +0.00    +0.000 Fe
DOCKED: ATOM     30  O   UNL d   1     -13.727   8.769   8.275 -0.53 +0.00    +0.000 OA
DOCKED: ATOM     31  O   UNL d   1     -13.311  10.267   8.530 -0.60 +0.00    +0.000 OA
DOCKED: ENDROOT
DOCKED: BRANCH   6  32
DOCKED: ATOM     32  C   UNL d   1     -16.775   6.129  11.779 -0.06 +0.03    +0.052 C 
DOCKED: BRANCH  32  33
DOCKED: ATOM     33  C   UNL d   1     -15.895   4.945  12.167 -0.13 +0.08    +0.115 C 
DOCKED: BRANCH  33  34
DOCKED: ATOM     34  C   UNL d   1     -14.435   5.194  11.880 -0.19 +0.17    +0.139 C 
DOCKED: ATOM     35  O   UNL d   1     -13.748   4.296  11.420 -0.36 -1.28    -0.650 OA
DOCKED: BRANCH  34  36
DOCKED: ATOM     36  O   UNL d   1     -13.859   6.385  12.145 -0.01 -1.23    -0.776 OA
DOCKED: ATOM     37  H   UNL d   1     -13.570   6.626  13.033 +0.03 +0.22    +0.167 HD
DOCKED: ENDBRANCH  34  36
DOCKED: ENDBRANCH  33  34
DOCKED: ENDBRANCH  32  33
DOCKED: ENDBRANCH   6  32
DOCKED: BRANCH  22  38
DOCKED: ATOM     38  C   UNL d   1     -15.756  11.222  13.465 -0.02 +0.02    +0.052 C 
DOCKED: BRANCH  38  39
DOCKED: ATOM     39  C   UNL d   1     -14.729  10.436  14.277 -0.04 +0.06    +0.115 C 
DOCKED: BRANCH  39  40
DOCKED: ATOM     40  C   UNL d   1     -13.534  10.026  13.453 +0.01 +0.17    +0.139 C 
DOCKED: ATOM     41  O   UNL d   1     -12.718  10.866  13.110 -0.73 -0.89    -0.650 OA
DOCKED: BRANCH  40  42
DOCKED: ATOM     42  O   UNL d   1     -13.322   8.736  13.130 -0.05 -1.73    -0.776 OA
DOCKED: ATOM     43  H   UNL d   1     -14.041   8.093  13.121 +0.01 +0.28    +0.167 HD
DOCKED: ENDBRANCH  40  42
DOCKED: ENDBRANCH  39  40
DOCKED: ENDBRANCH  38  39
DOCKED: ENDBRANCH  22  38
DOCKED: BRANCH  12  44
DOCKED: ATOM     44  C   UNL d   1     -14.336   8.512   2.538 -0.07 +0.00    +0.004 C 
DOCKED: ATOM     45  C   UNL d   1     -13.265   8.923   1.861 -0.11 +0.00    +0.012 C 
DOCKED: ENDBRANCH  12  44
DOCKED: BRANCH  17  46
DOCKED: ATOM     46  C   UNL d   1     -12.666  14.993   7.254 -0.11 -0.00    +0.004 C 
DOCKED: ATOM     47  C   UNL d   1     -13.358  16.071   7.643 -0.15 -0.00    +0.012 C 
DOCKED: ENDBRANCH  17  46
DOCKED: TORSDOF 10
DOCKED: TER
DOCKED: ENDMDL
________________________________________________________________________________


	BEGINNING GENETIC ALGORITHM DOCKING 10 of 100
Run: 10 Seed: 1722124186 1418403471 [ Run 10 of 100 GA/GALS ]
Beginning LAMARCKIAN GENETIC ALGORITHM (LGA), with a maximum of 25000000 energy evaluations.

Final-Value: -10.088


	FINAL GENETIC ALGORITHM DOCKED STATE
	_______________________________________________


Detailed state:  trans 15.322 7.443 4.783 quatxyzw -0.379857 -0.214466 -0.493936 0.752157 center 8.287 34.468 -0.670 ntor 10 28.2951 107.6108 -56.2981 124.5363 155.6806 -31.1802 -94.4500 101.6215 174.5487 -160.9856
State:	 15.322   7.443   4.783  -0.576 -0.325 -0.750 82.445     28.30  107.61  -56.30  124.54  155.68  -31.18  -94.45  101.62  174.55 -160.99

DOCKED: MODEL       10
DOCKED: USER    Run = 10
DOCKED: USER    DPF = D:/Protein_go_brrr/autodock/final/mut_Y35F/heme_O2/dock.dpf
DOCKED: USER  
DOCKED: USER    Estimated Free Energy of Binding    =   -6.26 kcal/mol  [=(1)+(2)+(3)-(4)]
DOCKED: USER    Estimated Inhibition Constant, Ki   =   25.60 uM (micromolar)  [Temperature = 298.15 K]
DOCKED: USER    
DOCKED: USER    (1) Final Intermolecular Energy     =   -9.25 kcal/mol
DOCKED: USER        vdW + Hbond + desolv Energy     =   -6.66 kcal/mol
DOCKED: USER        Electrostatic Energy            =   -2.58 kcal/mol
DOCKED: USER    (2) Final Total Internal Energy     =   -0.84 kcal/mol
DOCKED: USER    (3) Torsional Free Energy           =   +2.98 kcal/mol
DOCKED: USER    (4) Unbound System's Energy  [=(2)] =   -0.84 kcal/mol
DOCKED: USER    
DOCKED: USER    
DOCKED: USER    NEWDPF move heme_O2_opt.pdbqt
DOCKED: USER    NEWDPF about 8.287000 34.468000 -0.670000
DOCKED: USER    NEWDPF tran0 15.321993 7.442824 4.783164
DOCKED: USER    NEWDPF quaternion0 -0.379857 -0.214466 -0.493936 0.752157
DOCKED: USER    NEWDPF axisangle0 -0.576428 -0.325450 -0.749542 82.444918
DOCKED: USER    NEWDPF quat0 -0.576428 -0.325450 -0.749542 82.444918
DOCKED: USER    NEWDPF dihe0 28.30 107.61 -56.30 124.54 155.68 -31.18 -94.45 101.62 174.55 -160.99 
DOCKED: USER  keepresnum = 1 
DOCKED: USER  
DOCKED: REMARK  10 active torsions:
DOCKED: REMARK  status: ('A' for Active; 'I' for Inactive)
DOCKED: REMARK    1  A    between atoms: C_6  and  C_10 
DOCKED: REMARK    2  A    between atoms: C_10  and  C_11 
DOCKED: REMARK    3  A    between atoms: C_11  and  C_12 
DOCKED: REMARK    4  A    between atoms: C_12  and  O_14 
DOCKED: REMARK    5  A    between atoms: C_17  and  C_20 
DOCKED: REMARK    6  A    between atoms: C_24  and  C_27 
DOCKED: REMARK    7  A    between atoms: C_31  and  C_34 
DOCKED: REMARK    8  A    between atoms: C_34  and  C_35 
DOCKED: REMARK    9  A    between atoms: C_35  and  C_36 
DOCKED: REMARK   10  A    between atoms: C_36  and  O_38 
DOCKED: USER                              x       y       z     vdW  Elec       q    Type
DOCKED: USER                           _______ _______ _______ _____ _____    ______ ____
DOCKED: ROOT
DOCKED: ATOM      1  C   UNL d   1      13.629   6.171   4.661 -0.17 +0.02    +0.064 A 
DOCKED: ATOM      2  C   UNL d   1      18.291   5.293   4.883 -0.16 +0.03    +0.064 A 
DOCKED: ATOM      3  C   UNL d   1      19.266   9.998   4.979 -0.11 +0.02    +0.064 C 
DOCKED: ATOM      4  C   UNL d   1      14.452  10.907   5.233 -0.10 +0.01    +0.064 A 
DOCKED: ATOM      5  C   UNL d   1      14.817   5.548   4.715 -0.19 +0.02    +0.066 A 
DOCKED: ATOM      6  C   UNL d   1      14.976   4.160   4.685 -0.33 -0.01    -0.021 A 
DOCKED: ATOM      7  C   UNL d   1      16.323   3.903   4.793 -0.25 -0.01    -0.025 A 
DOCKED: ATOM      8  C   UNL d   1      16.954   5.143   4.837 -0.19 +0.02    +0.066 A 
DOCKED: ATOM      9  C   UNL d   1      16.937   2.523   4.877 -0.26 +0.01    +0.051 C 
DOCKED: ATOM     10  C   UNL d   1      19.011   6.567   4.908 -0.15 +0.04    +0.066 A 
DOCKED: ATOM     11  C   UNL d   1      20.402   6.668   4.790 -0.08 -0.02    -0.021 A 
DOCKED: ATOM     12  C   UNL d   1      20.701   8.018   4.797 -0.12 +0.00    +0.000 A 
DOCKED: ATOM     13  C   UNL d   1      19.449   8.678   4.935 -0.14 +0.04    +0.070 A 
DOCKED: ATOM     14  C   UNL d   1      21.401   5.525   4.648 -0.04 +0.04    +0.052 C 
DOCKED: ATOM     15  C   UNL d   1      18.020  10.705   5.153 -0.03 +0.02    +0.066 A 
DOCKED: ATOM     16  C   UNL d   1      17.913  12.080   5.355 -0.06 -0.00    -0.021 A 
DOCKED: ATOM     17  C   UNL d   1      16.549  12.363   5.431 -0.07 +0.00    +0.000 A 
DOCKED: ATOM     18  C   UNL d   1      15.918  11.122   5.265 -0.03 +0.02    +0.070 A 
DOCKED: ATOM     19  C   UNL d   1      19.110  12.984   5.511 -0.04 +0.01    +0.052 C 
DOCKED: ATOM     20  C   UNL d   1      13.814   9.726   5.119 -0.12 +0.01    +0.066 A 
DOCKED: ATOM     21  C   UNL d   1      12.430   9.588   5.077 -0.16 -0.00    -0.025 A 
DOCKED: ATOM     22  C   UNL d   1      12.177   8.248   4.886 -0.23 -0.00    -0.021 A 
DOCKED: ATOM     23  C   UNL d   1      13.422   7.613   4.838 -0.20 +0.01    +0.066 A 
DOCKED: ATOM     24  C   UNL d   1      11.400  10.679   5.214 -0.17 +0.00    +0.051 C 
DOCKED: ATOM     25  N   UNL d   1      16.022   6.155   4.855 -0.12 -0.08    -0.248 N 
DOCKED: ATOM     26  N   UNL d   1      18.427   7.788   5.007 -0.11 -0.13    -0.248 N 
DOCKED: ATOM     27  N   UNL d   1      16.827  10.118   5.173 -0.02 -0.11    -0.248 N 
DOCKED: ATOM     28  N   UNL d   1      14.413   8.509   5.025 -0.10 -0.06    -0.248 N 
DOCKED: ATOM     29 FE   UNL d   1      16.406   8.154   5.016 -0.04 +0.00    +0.000 Fe
DOCKED: ATOM     30  O   UNL d   1      16.710   7.350   6.314 -0.08 +0.00    +0.000 OA
DOCKED: ATOM     31  O   UNL d   1      16.043   8.773   6.416 -0.09 +0.00    +0.000 OA
DOCKED: ENDROOT
DOCKED: BRANCH   6  32
DOCKED: ATOM     32  C   UNL d   1      13.897   3.107   4.693 -0.42 +0.02    +0.052 C 
DOCKED: BRANCH  32  33
DOCKED: ATOM     33  C   UNL d   1      13.703   2.469   6.065 -0.33 +0.05    +0.115 C 
DOCKED: BRANCH  33  34
DOCKED: ATOM     34  C   UNL d   1      12.806   3.289   6.959 -0.18 +0.12    +0.139 C 
DOCKED: ATOM     35  O   UNL d   1      12.264   4.289   6.516 -0.45 -0.65    -0.650 OA
DOCKED: BRANCH  34  36
DOCKED: ATOM     36  O   UNL d   1      12.609   2.958   8.252 -0.10 -1.09    -0.776 OA
DOCKED: ATOM     37  H   UNL d   1      13.276   2.489   8.767 +0.03 +0.16    +0.167 HD
DOCKED: ENDBRANCH  34  36
DOCKED: ENDBRANCH  33  34
DOCKED: ENDBRANCH  32  33
DOCKED: ENDBRANCH   6  32
DOCKED: BRANCH  22  38
DOCKED: ATOM     38  C   UNL d   1      10.813   7.612   4.821 -0.16 +0.01    +0.052 C 
DOCKED: BRANCH  38  39
DOCKED: ATOM     39  C   UNL d   1      10.000   7.845   6.093 -0.19 +0.03    +0.115 C 
DOCKED: BRANCH  39  40
DOCKED: ATOM     40  C   UNL d   1      10.398   6.913   7.210 -0.19 +0.10    +0.139 C 
DOCKED: ATOM     41  O   UNL d   1      10.930   7.360   8.213 -0.03 -0.48    -0.650 OA
DOCKED: BRANCH  40  42
DOCKED: ATOM     42  O   UNL d   1      10.129   5.594   7.144 -0.48 -1.05    -0.776 OA
DOCKED: ATOM     43  H   UNL d   1      10.830   4.941   7.032 +0.03 +0.26    +0.167 HD
DOCKED: ENDBRANCH  40  42
DOCKED: ENDBRANCH  39  40
DOCKED: ENDBRANCH  38  39
DOCKED: ENDBRANCH  22  38
DOCKED: BRANCH  12  44
DOCKED: ATOM     44  C   UNL d   1      22.122   8.527   4.678 -0.08 +0.00    +0.004 C 
DOCKED: ATOM     45  C   UNL d   1      22.635   9.311   3.730 -0.08 +0.01    +0.012 C 
DOCKED: ENDBRANCH  12  44
DOCKED: BRANCH  17  46
DOCKED: ATOM     46  C   UNL d   1      15.821  13.653   5.697 -0.04 +0.00    +0.004 C 
DOCKED: ATOM     47  C   UNL d   1      14.975  14.308   4.891 -0.05 -0.00    +0.012 C 
DOCKED: ENDBRANCH  17  46
DOCKED: TORSDOF 10
DOCKED: TER
DOCKED: ENDMDL
________________________________________________________________________________


	BEGINNING GENETIC ALGORITHM DOCKING 11 of 100
Run: 11 Seed: 1360212539 1933546416 [ Run 11 of 100 GA/GALS ]
Beginning LAMARCKIAN GENETIC ALGORITHM (LGA), with a maximum of 25000000 energy evaluations.

Final-Value: -11.387


	FINAL GENETIC ALGORITHM DOCKED STATE
	_______________________________________________


Detailed state:  trans 11.316 11.332 6.757 quatxyzw 0.648644 0.618363 0.412229 -0.164179 center 8.287 34.468 -0.670 ntor 10 -114.7733 -5.9622 -91.7247 26.8536 42.1381 -140.8525 -49.1875 66.9609 171.7124 117.2510
State:	 11.316  11.332   6.757   0.658  0.627  0.418 -161.101   -114.77   -5.96  -91.72   26.85   42.14 -140.85  -49.19   66.96  171.71  117.25

DOCKED: MODEL       11
DOCKED: USER    Run = 11
DOCKED: USER    DPF = D:/Protein_go_brrr/autodock/final/mut_Y35F/heme_O2/dock.dpf
DOCKED: USER  
DOCKED: USER    Estimated Free Energy of Binding    =   -6.52 kcal/mol  [=(1)+(2)+(3)-(4)]
DOCKED: USER    Estimated Inhibition Constant, Ki   =   16.59 uM (micromolar)  [Temperature = 298.15 K]
DOCKED: USER    
DOCKED: USER    (1) Final Intermolecular Energy     =   -9.50 kcal/mol
DOCKED: USER        vdW + Hbond + desolv Energy     =   -7.29 kcal/mol
DOCKED: USER        Electrostatic Energy            =   -2.22 kcal/mol
DOCKED: USER    (2) Final Total Internal Energy     =   -1.88 kcal/mol
DOCKED: USER    (3) Torsional Free Energy           =   +2.98 kcal/mol
DOCKED: USER    (4) Unbound System's Energy  [=(2)] =   -1.88 kcal/mol
DOCKED: USER    
DOCKED: USER    
DOCKED: USER    NEWDPF move heme_O2_opt.pdbqt
DOCKED: USER    NEWDPF about 8.287000 34.468000 -0.670000
DOCKED: USER    NEWDPF tran0 11.316039 11.332031 6.757106
DOCKED: USER    NEWDPF quaternion0 0.648644 0.618363 0.412229 -0.164179
DOCKED: USER    NEWDPF axisangle0 0.657567 0.626869 0.417900 -161.100949
DOCKED: USER    NEWDPF quat0 0.657567 0.626869 0.417900 -161.100949
DOCKED: USER    NEWDPF dihe0 -114.77 -5.96 -91.72 26.85 42.14 -140.85 -49.19 66.96 171.71 117.25 
DOCKED: USER  keepresnum = 1 
DOCKED: USER  
DOCKED: REMARK  10 active torsions:
DOCKED: REMARK  status: ('A' for Active; 'I' for Inactive)
DOCKED: REMARK    1  A    between atoms: C_6  and  C_10 
DOCKED: REMARK    2  A    between atoms: C_10  and  C_11 
DOCKED: REMARK    3  A    between atoms: C_11  and  C_12 
DOCKED: REMARK    4  A    between atoms: C_12  and  O_14 
DOCKED: REMARK    5  A    between atoms: C_17  and  C_20 
DOCKED: REMARK    6  A    between atoms: C_24  and  C_27 
DOCKED: REMARK    7  A    between atoms: C_31  and  C_34 
DOCKED: REMARK    8  A    between atoms: C_34  and  C_35 
DOCKED: REMARK    9  A    between atoms: C_35  and  C_36 
DOCKED: REMARK   10  A    between atoms: C_36  and  O_38 
DOCKED: USER                              x       y       z     vdW  Elec       q    Type
DOCKED: USER                           _______ _______ _______ _____ _____    ______ ____
DOCKED: ROOT
DOCKED: ATOM      1  C   UNL d   1      11.323   9.232   7.057 -0.12 +0.02    +0.064 A 
DOCKED: ATOM      2  C   UNL d   1      12.117  11.929   3.228 -0.14 -0.01    +0.064 A 
DOCKED: ATOM      3  C   UNL d   1      11.299  15.929   5.762 -0.18 -0.01    +0.064 C 
DOCKED: ATOM      4  C   UNL d   1      10.950  13.191   9.818 -0.23 +0.02    +0.064 A 
DOCKED: ATOM      5  C   UNL d   1      11.607   9.639   5.809 -0.13 +0.01    +0.066 A 
DOCKED: ATOM      6  C   UNL d   1      11.884   8.773   4.747 -0.22 -0.00    -0.021 A 
DOCKED: ATOM      7  C   UNL d   1      12.157   9.554   3.648 -0.32 +0.00    -0.025 A 
DOCKED: ATOM      8  C   UNL d   1      11.991  10.875   4.058 -0.21 -0.00    +0.066 A 
DOCKED: ATOM      9  C   UNL d   1      12.581   9.027   2.295 -0.40 -0.00    +0.051 C 
DOCKED: ATOM     10  C   UNL d   1      11.933  13.334   3.594 -0.18 -0.01    +0.066 A 
DOCKED: ATOM     11  C   UNL d   1      11.913  14.376   2.660 -0.22 +0.00    -0.021 A 
DOCKED: ATOM     12  C   UNL d   1      11.661  15.535   3.369 -0.13 -0.00    +0.000 A 
DOCKED: ATOM     13  C   UNL d   1      11.550  15.128   4.728 -0.13 -0.01    +0.070 A 
DOCKED: ATOM     14  C   UNL d   1      12.100  14.266   1.151 -0.42 -0.02    +0.052 C 
DOCKED: ATOM     15  C   UNL d   1      11.214  15.561   7.155 -0.19 -0.01    +0.066 A 
DOCKED: ATOM     16  C   UNL d   1      11.112  16.470   8.208 -0.18 +0.00    -0.021 A 
DOCKED: ATOM     17  C   UNL d   1      11.012  15.712   9.375 -0.23 +0.00    +0.000 A 
DOCKED: ATOM     18  C   UNL d   1      11.059  14.380   8.940 -0.21 +0.01    +0.070 A 
DOCKED: ATOM     19  C   UNL d   1      11.174  17.964   8.014 -0.14 -0.01    +0.052 C 
DOCKED: ATOM     20  C   UNL d   1      11.035  11.901   9.440 -0.18 +0.02    +0.066 A 
DOCKED: ATOM     21  C   UNL d   1      10.906  10.823  10.310 -0.16 -0.01    -0.025 A 
DOCKED: ATOM     22  C   UNL d   1      10.982   9.686   9.537 -0.15 -0.01    -0.021 A 
DOCKED: ATOM     23  C   UNL d   1      11.174  10.115   8.220 -0.14 +0.01    +0.066 A 
DOCKED: ATOM     24  C   UNL d   1      10.723  10.874  11.805 -0.15 +0.02    +0.051 C 
DOCKED: ATOM     25  N   UNL d   1      11.717  10.928   5.405 -0.08 -0.01    -0.248 N 
DOCKED: ATOM     26  N   UNL d   1      11.722  13.788   4.856 -0.06 +0.02    -0.248 N 
DOCKED: ATOM     27  N   UNL d   1      11.258  14.308   7.599 -0.07 -0.01    -0.248 N 
DOCKED: ATOM     28  N   UNL d   1      11.250  11.461   8.172 -0.05 -0.04    -0.248 N 
DOCKED: ATOM     29 FE   UNL d   1      11.484  12.618   6.528 -0.04 +0.00    +0.000 Fe
DOCKED: ATOM     30  O   UNL d   1      12.943  12.386   6.037 -0.10 +0.00    +0.000 OA
DOCKED: ATOM     31  O   UNL d   1      12.686  12.924   7.495 -0.10 +0.00    +0.000 OA
DOCKED: ENDROOT
DOCKED: BRANCH   6  32
DOCKED: ATOM     32  C   UNL d   1      12.024   7.274   4.791 -0.26 +0.01    +0.052 C 
DOCKED: BRANCH  32  33
DOCKED: ATOM     33  C   UNL d   1      13.475   6.811   4.710 -0.20 +0.03    +0.115 C 
DOCKED: BRANCH  33  34
DOCKED: ATOM     34  C   UNL d   1      13.834   5.847   5.814 -0.18 +0.05    +0.139 C 
DOCKED: ATOM     35  O   UNL d   1      14.574   6.209   6.714 +0.05 -0.22    -0.650 OA
DOCKED: BRANCH  34  36
DOCKED: ATOM     36  O   UNL d   1      13.377   4.578   5.815 -0.38 -0.43    -0.776 OA
DOCKED: ATOM     37  H   UNL d   1      12.770   4.254   6.490 +0.05 +0.14    +0.167 HD
DOCKED: ENDBRANCH  34  36
DOCKED: ENDBRANCH  33  34
DOCKED: ENDBRANCH  32  33
DOCKED: ENDBRANCH   6  32
DOCKED: BRANCH  22  38
DOCKED: ATOM     38  C   UNL d   1      10.938   8.270  10.050 -0.13 +0.03    +0.052 C 
DOCKED: BRANCH  38  39
DOCKED: ATOM     39  C   UNL d   1      11.910   7.353   9.311 -0.08 +0.08    +0.115 C 
DOCKED: BRANCH  39  40
DOCKED: ATOM     40  C   UNL d   1      11.202   6.289   8.509 +0.20 +0.21    +0.139 C 
DOCKED: ATOM     41  O   UNL d   1       9.983   6.282   8.454 -0.25 -1.08    -0.650 OA
DOCKED: BRANCH  40  42
DOCKED: ATOM     42  O   UNL d   1      11.895   5.371   7.807 -0.22 -1.15    -0.776 OA
DOCKED: ATOM     43  H   UNL d   1      12.858   5.393   7.759 +0.03 +0.15    +0.167 HD
DOCKED: ENDBRANCH  40  42
DOCKED: ENDBRANCH  39  40
DOCKED: ENDBRANCH  38  39
DOCKED: ENDBRANCH  22  38
DOCKED: BRANCH  12  44
DOCKED: ATOM     44  C   UNL d   1      11.557  16.886   2.692 -0.11 -0.00    +0.004 C 
DOCKED: ATOM     45  C   UNL d   1      10.493  17.423   2.096 -0.15 -0.00    +0.012 C 
DOCKED: ENDBRANCH  12  44
DOCKED: BRANCH  17  46
DOCKED: ATOM     46  C   UNL d   1      10.937  16.128  10.820 -0.19 +0.00    +0.004 C 
DOCKED: ATOM     47  C   UNL d   1      10.584  17.318  11.322 -0.20 +0.00    +0.012 C 
DOCKED: ENDBRANCH  17  46
DOCKED: TORSDOF 10
DOCKED: TER
DOCKED: ENDMDL
________________________________________________________________________________


	BEGINNING GENETIC ALGORITHM DOCKING 12 of 100
Run: 12 Seed: 1963495755 874596513 [ Run 12 of 100 GA/GALS ]
Beginning LAMARCKIAN GENETIC ALGORITHM (LGA), with a maximum of 25000000 energy evaluations.

Final-Value: -11.225


	FINAL GENETIC ALGORITHM DOCKED STATE
	_______________________________________________


Detailed state:  trans -13.159 8.337 14.486 quatxyzw -0.845064 -0.395520 -0.109010 -0.342852 center 8.287 34.468 -0.670 ntor 10 -116.2073 132.1529 49.2893 -103.4108 38.0085 6.4587 -117.1678 87.7329 165.9209 180.0000
State:	-13.159   8.337  14.486  -0.900 -0.421 -0.116 -139.899   -116.21  132.15   49.29 -103.41   38.01    6.46 -117.17   87.73  165.92  180.00

DOCKED: MODEL       12
DOCKED: USER    Run = 12
DOCKED: USER    DPF = D:/Protein_go_brrr/autodock/final/mut_Y35F/heme_O2/dock.dpf
DOCKED: USER  
DOCKED: USER    Estimated Free Energy of Binding    =   -6.23 kcal/mol  [=(1)+(2)+(3)-(4)]
DOCKED: USER    Estimated Inhibition Constant, Ki   =   27.30 uM (micromolar)  [Temperature = 298.15 K]
DOCKED: USER    
DOCKED: USER    (1) Final Intermolecular Energy     =   -9.21 kcal/mol
DOCKED: USER        vdW + Hbond + desolv Energy     =   -5.13 kcal/mol
DOCKED: USER        Electrostatic Energy            =   -4.08 kcal/mol
DOCKED: USER    (2) Final Total Internal Energy     =   -2.02 kcal/mol
DOCKED: USER    (3) Torsional Free Energy           =   +2.98 kcal/mol
DOCKED: USER    (4) Unbound System's Energy  [=(2)] =   -2.02 kcal/mol
DOCKED: USER    
DOCKED: USER    
DOCKED: USER    NEWDPF move heme_O2_opt.pdbqt
DOCKED: USER    NEWDPF about 8.287000 34.468000 -0.670000
DOCKED: USER    NEWDPF tran0 -13.158953 8.337399 14.485996
DOCKED: USER    NEWDPF quaternion0 -0.845064 -0.395520 -0.109010 -0.342852
DOCKED: USER    NEWDPF axisangle0 -0.899589 -0.421039 -0.116044 -139.898519
DOCKED: USER    NEWDPF quat0 -0.899589 -0.421039 -0.116044 -139.898519
DOCKED: USER    NEWDPF dihe0 -116.21 132.15 49.29 -103.41 38.01 6.46 -117.17 87.73 165.92 180.00 
DOCKED: USER  keepresnum = 1 
DOCKED: USER  
DOCKED: REMARK  10 active torsions:
DOCKED: REMARK  status: ('A' for Active; 'I' for Inactive)
DOCKED: REMARK    1  A    between atoms: C_6  and  C_10 
DOCKED: REMARK    2  A    between atoms: C_10  and  C_11 
DOCKED: REMARK    3  A    between atoms: C_11  and  C_12 
DOCKED: REMARK    4  A    between atoms: C_12  and  O_14 
DOCKED: REMARK    5  A    between atoms: C_17  and  C_20 
DOCKED: REMARK    6  A    between atoms: C_24  and  C_27 
DOCKED: REMARK    7  A    between atoms: C_31  and  C_34 
DOCKED: REMARK    8  A    between atoms: C_34  and  C_35 
DOCKED: REMARK    9  A    between atoms: C_35  and  C_36 
DOCKED: REMARK   10  A    between atoms: C_36  and  O_38 
DOCKED: USER                              x       y       z     vdW  Elec       q    Type
DOCKED: USER                           _______ _______ _______ _____ _____    ______ ____
DOCKED: ROOT
DOCKED: ATOM      1  C   UNL d   1     -13.882   6.422  13.930 -0.11 +0.05    +0.064 A 
DOCKED: ATOM      2  C   UNL d   1     -15.452  10.821  13.063 -0.03 +0.03    +0.064 A 
DOCKED: ATOM      3  C   UNL d   1     -11.850  12.710  15.622 -0.06 +0.01    +0.064 C 
DOCKED: ATOM      4  C   UNL d   1      -9.954   8.213  16.122 -0.15 +0.02    +0.064 A 
DOCKED: ATOM      5  C   UNL d   1     -14.602   7.465  13.484 -0.07 +0.06    +0.066 A 
DOCKED: ATOM      6  C   UNL d   1     -15.762   7.342  12.713 -0.06 -0.02    -0.021 A 
DOCKED: ATOM      7  C   UNL d   1     -16.193   8.616  12.425 -0.04 -0.02    -0.025 A 
DOCKED: ATOM      8  C   UNL d   1     -15.312   9.481  13.069 -0.05 +0.05    +0.066 A 
DOCKED: ATOM      9  C   UNL d   1     -17.378   8.950  11.546 -0.01 +0.02    +0.051 C 
DOCKED: ATOM     10  C   UNL d   1     -14.574  11.777  13.738 -0.04 +0.03    +0.066 A 
DOCKED: ATOM     11  C   UNL d   1     -14.857  13.144  13.838 -0.01 -0.00    -0.021 A 
DOCKED: ATOM     12  C   UNL d   1     -13.839  13.703  14.587 -0.01 +0.00    +0.000 A 
DOCKED: ATOM     13  C   UNL d   1     -12.967  12.624  14.900 -0.05 +0.02    +0.070 A 
DOCKED: ATOM     14  C   UNL d   1     -16.062  13.881  13.264 +0.00 +0.00    +0.052 C 
DOCKED: ATOM     15  C   UNL d   1     -10.922  11.649  15.931 -0.07 +0.01    +0.066 A 
DOCKED: ATOM     16  C   UNL d   1      -9.687  11.834  16.552 -0.07 -0.00    -0.021 A 
DOCKED: ATOM     17  C   UNL d   1      -9.128  10.565  16.704 -0.10 +0.00    +0.000 A 
DOCKED: ATOM     18  C   UNL d   1     -10.077   9.689  16.159 -0.11 +0.02    +0.070 A 
DOCKED: ATOM     19  C   UNL d   1      -9.133  13.195  16.890 -0.05 +0.01    +0.052 C 
DOCKED: ATOM     20  C   UNL d   1     -10.825   7.347  15.569 -0.15 +0.03    +0.066 A 
DOCKED: ATOM     21  C   UNL d   1     -10.665   5.964  15.580 -0.20 -0.01    -0.025 A 
DOCKED: ATOM     22  C   UNL d   1     -11.788   5.436  14.984 -0.19 -0.01    -0.021 A 
DOCKED: ATOM     23  C   UNL d   1     -12.587   6.521  14.613 -0.11 +0.04    +0.066 A 
DOCKED: ATOM     24  C   UNL d   1      -9.496   5.186  16.129 -0.12 +0.01    +0.051 C 
DOCKED: ATOM     25  N   UNL d   1     -14.295   8.772  13.666 -0.05 -0.27    -0.248 N 
DOCKED: ATOM     26  N   UNL d   1     -13.419  11.457  14.376 -0.06 -0.11    -0.248 N 
DOCKED: ATOM     27  N   UNL d   1     -11.125  10.370  15.628 -0.08 -0.08    -0.248 N 
DOCKED: ATOM     28  N   UNL d   1     -11.978   7.682  14.930 -0.09 -0.16    -0.248 N 
DOCKED: ATOM     29 FE   UNL d   1     -12.691   9.557  14.656 -0.02 +0.00    +0.000 Fe
DOCKED: ATOM     30  O   UNL d   1     -12.667   9.811  13.121 -0.53 +0.00    +0.000 OA
DOCKED: ATOM     31  O   UNL d   1     -11.331   9.450  13.873 -0.21 +0.00    +0.000 OA
DOCKED: ENDROOT
DOCKED: BRANCH   6  32
DOCKED: ATOM     32  C   UNL d   1     -16.367   6.082  12.150 -0.07 +0.03    +0.052 C 
DOCKED: BRANCH  32  33
DOCKED: ATOM     33  C   UNL d   1     -16.244   5.992  10.632 -0.09 +0.09    +0.115 C 
DOCKED: BRANCH  33  34
DOCKED: ATOM     34  C   UNL d   1     -14.807   5.995  10.171 -0.15 +0.20    +0.139 C 
DOCKED: ATOM     35  O   UNL d   1     -14.380   6.945   9.534 +0.06 -1.06    -0.650 OA
DOCKED: BRANCH  34  36
DOCKED: ATOM     36  O   UNL d   1     -13.986   4.955  10.422 -0.07 -1.77    -0.776 OA
DOCKED: ATOM     37  H   UNL d   1     -13.206   5.044  10.982 +0.05 +0.36    +0.167 HD
DOCKED: ENDBRANCH  34  36
DOCKED: ENDBRANCH  33  34
DOCKED: ENDBRANCH  32  33
DOCKED: ENDBRANCH   6  32
DOCKED: BRANCH  22  38
DOCKED: ATOM     38  C   UNL d   1     -12.042   3.973  14.730 -0.31 +0.02    +0.052 C 
DOCKED: BRANCH  38  39
DOCKED: ATOM     39  C   UNL d   1     -11.273   3.450  13.518 -0.46 +0.07    +0.115 C 
DOCKED: BRANCH  39  40
DOCKED: ATOM     40  C   UNL d   1     -12.089   3.506  12.251 -0.39 +0.17    +0.139 C 
DOCKED: ATOM     41  O   UNL d   1     -11.529   3.644  11.175 -0.36 -1.19    -0.650 OA
DOCKED: BRANCH  40  42
DOCKED: ATOM     42  O   UNL d   1     -13.428   3.355  12.278 -0.17 -0.98    -0.776 OA
DOCKED: ATOM     43  H   UNL d   1     -14.012   3.938  11.778 +0.05 +0.26    +0.167 HD
DOCKED: ENDBRANCH  40  42
DOCKED: ENDBRANCH  39  40
DOCKED: ENDBRANCH  38  39
DOCKED: ENDBRANCH  22  38
DOCKED: BRANCH  12  44
DOCKED: ATOM     44  C   UNL d   1     -13.803  15.181  14.918 -0.00 -0.00    +0.004 C 
DOCKED: ATOM     45  C   UNL d   1     -12.761  16.009  14.851 -0.01 -0.00    +0.012 C 
DOCKED: ENDBRANCH  12  44
DOCKED: BRANCH  17  46
DOCKED: ATOM     46  C   UNL d   1      -7.793  10.133  17.249 -0.11 +0.00    +0.004 C 
DOCKED: ATOM     47  C   UNL d   1      -6.754   9.614  16.581 -0.20 +0.00    +0.012 C 
DOCKED: ENDBRANCH  17  46
DOCKED: TORSDOF 10
DOCKED: TER
DOCKED: ENDMDL
________________________________________________________________________________


	BEGINNING GENETIC ALGORITHM DOCKING 13 of 100
Run: 13 Seed: 1847625730 209862613 [ Run 13 of 100 GA/GALS ]
Beginning LAMARCKIAN GENETIC ALGORITHM (LGA), with a maximum of 25000000 energy evaluations.

Final-Value: -9.857


	FINAL GENETIC ALGORITHM DOCKED STATE
	_______________________________________________


Detailed state:  trans -14.839 2.312 -0.311 quatxyzw 0.699042 -0.567455 -0.226636 0.371444 center 8.287 34.468 -0.670 ntor 10 180.0000 24.5174 -67.3962 125.4264 -97.0206 -172.9228 126.0566 130.2531 28.5139 30.1158
State:	-14.839   2.312  -0.311   0.753 -0.611 -0.244 136.391    180.00   24.52  -67.40  125.43  -97.02 -172.92  126.06  130.25   28.51   30.12

DOCKED: MODEL       13
DOCKED: USER    Run = 13
DOCKED: USER    DPF = D:/Protein_go_brrr/autodock/final/mut_Y35F/heme_O2/dock.dpf
DOCKED: USER  
DOCKED: USER    Estimated Free Energy of Binding    =   -5.19 kcal/mol  [=(1)+(2)+(3)-(4)]
DOCKED: USER    Estimated Inhibition Constant, Ki   =  156.41 uM (micromolar)  [Temperature = 298.15 K]
DOCKED: USER    
DOCKED: USER    (1) Final Intermolecular Energy     =   -8.17 kcal/mol
DOCKED: USER        vdW + Hbond + desolv Energy     =   -7.15 kcal/mol
DOCKED: USER        Electrostatic Energy            =   -1.03 kcal/mol
DOCKED: USER    (2) Final Total Internal Energy     =   -1.68 kcal/mol
DOCKED: USER    (3) Torsional Free Energy           =   +2.98 kcal/mol
DOCKED: USER    (4) Unbound System's Energy  [=(2)] =   -1.68 kcal/mol
DOCKED: USER    
DOCKED: USER    
DOCKED: USER    NEWDPF move heme_O2_opt.pdbqt
DOCKED: USER    NEWDPF about 8.287000 34.468000 -0.670000
DOCKED: USER    NEWDPF tran0 -14.838615 2.312099 -0.311197
DOCKED: USER    NEWDPF quaternion0 0.699042 -0.567455 -0.226636 0.371444
DOCKED: USER    NEWDPF axisangle0 0.752909 -0.611182 -0.244100 136.390621
DOCKED: USER    NEWDPF quat0 0.752909 -0.611182 -0.244100 136.390621
DOCKED: USER    NEWDPF dihe0 180.00 24.52 -67.40 125.43 -97.02 -172.92 126.06 130.25 28.51 30.12 
DOCKED: USER  keepresnum = 1 
DOCKED: USER  
DOCKED: REMARK  10 active torsions:
DOCKED: REMARK  status: ('A' for Active; 'I' for Inactive)
DOCKED: REMARK    1  A    between atoms: C_6  and  C_10 
DOCKED: REMARK    2  A    between atoms: C_10  and  C_11 
DOCKED: REMARK    3  A    between atoms: C_11  and  C_12 
DOCKED: REMARK    4  A    between atoms: C_12  and  O_14 
DOCKED: REMARK    5  A    between atoms: C_17  and  C_20 
DOCKED: REMARK    6  A    between atoms: C_24  and  C_27 
DOCKED: REMARK    7  A    between atoms: C_31  and  C_34 
DOCKED: REMARK    8  A    between atoms: C_34  and  C_35 
DOCKED: REMARK    9  A    between atoms: C_35  and  C_36 
DOCKED: REMARK   10  A    between atoms: C_36  and  O_38 
DOCKED: USER                              x       y       z     vdW  Elec       q    Type
DOCKED: USER                           _______ _______ _______ _____ _____    ______ ____
DOCKED: ROOT
DOCKED: ATOM      1  C   UNL d   1     -15.975   2.811   1.409 -0.04 +0.01    +0.064 A 
DOCKED: ATOM      2  C   UNL d   1     -12.667   5.174  -1.047 -0.11 +0.01    +0.064 A 
DOCKED: ATOM      3  C   UNL d   1     -12.121   1.467  -4.056 -0.22 +0.00    +0.064 C 
DOCKED: ATOM      4  C   UNL d   1     -15.864  -0.789  -1.826 -0.09 +0.02    +0.064 A 
DOCKED: ATOM      5  C   UNL d   1     -15.121   3.757   0.985 -0.04 +0.01    +0.066 A 
DOCKED: ATOM      6  C   UNL d   1     -14.951   4.996   1.611 -0.06 -0.00    -0.021 A 
DOCKED: ATOM      7  C   UNL d   1     -14.025   5.698   0.875 -0.08 -0.00    -0.025 A 
DOCKED: ATOM      8  C   UNL d   1     -13.619   4.850  -0.151 -0.10 +0.01    +0.066 A 
DOCKED: ATOM      9  C   UNL d   1     -13.597   7.122   1.155 +0.14 +0.01    +0.051 C 
DOCKED: ATOM     10  C   UNL d   1     -12.182   4.318  -2.132 -0.08 +0.01    +0.066 A 
DOCKED: ATOM     11  C   UNL d   1     -11.079   4.639  -2.931 -0.13 -0.00    -0.021 A 
DOCKED: ATOM     12  C   UNL d   1     -10.895   3.574  -3.793 -0.16 +0.00    +0.000 A 
DOCKED: ATOM     13  C   UNL d   1     -11.927   2.649  -3.472 -0.13 +0.00    +0.070 A 
DOCKED: ATOM     14  C   UNL d   1     -10.221   5.896  -2.856 -0.14 +0.01    +0.052 C 
DOCKED: ATOM     15  C   UNL d   1     -13.174   0.518  -3.785 -0.20 +0.00    +0.066 A 
DOCKED: ATOM     16  C   UNL d   1     -13.421  -0.627  -4.542 -0.22 -0.00    -0.021 A 
DOCKED: ATOM     17  C   UNL d   1     -14.485  -1.286  -3.926 -0.23 +0.00    +0.000 A 
DOCKED: ATOM     18  C   UNL d   1     -14.810  -0.484  -2.822 -0.18 +0.01    +0.070 A 
DOCKED: ATOM     19  C   UNL d   1     -12.665  -0.957  -5.804 -0.15 +0.01    +0.052 C 
DOCKED: ATOM     20  C   UNL d   1     -16.230  -0.021  -0.782 -0.12 +0.01    +0.066 A 
DOCKED: ATOM     21  C   UNL d   1     -17.219  -0.369   0.134 -0.14 -0.01    -0.025 A 
DOCKED: ATOM     22  C   UNL d   1     -17.246   0.632   1.079 -0.10 -0.00    -0.021 A 
DOCKED: ATOM     23  C   UNL d   1     -16.280   1.567   0.693 -0.06 +0.01    +0.066 A 
DOCKED: ATOM     24  C   UNL d   1     -18.096  -1.594   0.107 -0.12 +0.02    +0.051 C 
DOCKED: ATOM     25  N   UNL d   1     -14.342   3.680  -0.121 -0.04 -0.03    -0.248 N 
DOCKED: ATOM     26  N   UNL d   1     -12.708   3.112  -2.463 -0.05 -0.02    -0.248 N 
DOCKED: ATOM     27  N   UNL d   1     -14.054   0.643  -2.795 -0.10 -0.02    -0.248 N 
DOCKED: ATOM     28  N   UNL d   1     -15.697   1.189  -0.463 -0.05 -0.04    -0.248 N 
DOCKED: ATOM     29 FE   UNL d   1     -14.213   2.141  -1.458 -0.03 +0.00    +0.000 Fe
DOCKED: ATOM     30  O   UNL d   1     -14.847   3.435  -2.048 -0.05 +0.00    +0.000 OA
DOCKED: ATOM     31  O   UNL d   1     -15.440   2.028  -2.435 -0.06 +0.00    +0.000 OA
DOCKED: ENDROOT
DOCKED: BRANCH   6  32
DOCKED: ATOM     32  C   UNL d   1     -15.728   5.556   2.774 -0.04 +0.01    +0.052 C 
DOCKED: BRANCH  32  33
DOCKED: ATOM     33  C   UNL d   1     -14.885   5.694   4.038 -0.07 +0.04    +0.115 C 
DOCKED: BRANCH  33  34
DOCKED: ATOM     34  C   UNL d   1     -14.251   4.389   4.452 -0.15 +0.06    +0.139 C 
DOCKED: ATOM     35  O   UNL d   1     -13.040   4.257   4.380 -0.42 -0.42    -0.650 OA
DOCKED: BRANCH  34  36
DOCKED: ATOM     36  O   UNL d   1     -14.997   3.348   4.876 +0.08 -0.30    -0.776 OA
DOCKED: ATOM     37  H   UNL d   1     -14.601   2.512   5.146 -0.39 +0.04    +0.167 HD
DOCKED: ENDBRANCH  34  36
DOCKED: ENDBRANCH  33  34
DOCKED: ENDBRANCH  32  33
DOCKED: ENDBRANCH   6  32
DOCKED: BRANCH  22  38
DOCKED: ATOM     38  C   UNL d   1     -18.193   0.712   2.248 -0.12 +0.01    +0.052 C 
DOCKED: BRANCH  38  39
DOCKED: ATOM     39  C   UNL d   1     -17.474   1.021   3.559 -0.17 +0.03    +0.115 C 
DOCKED: BRANCH  39  40
DOCKED: ATOM     40  C   UNL d   1     -16.303   0.101   3.805 -0.20 +0.05    +0.139 C 
DOCKED: ATOM     41  O   UNL d   1     -16.312  -1.028   3.342 -0.37 -0.29    -0.650 OA
DOCKED: BRANCH  40  42
DOCKED: ATOM     42  O   UNL d   1     -15.220   0.521   4.487 -0.41 -0.31    -0.776 OA
DOCKED: ATOM     43  H   UNL d   1     -15.280   1.221   5.148 -0.52 +0.03    +0.167 HD
DOCKED: ENDBRANCH  40  42
DOCKED: ENDBRANCH  39  40
DOCKED: ENDBRANCH  38  39
DOCKED: ENDBRANCH  22  38
DOCKED: BRANCH  12  44
DOCKED: ATOM     44  C   UNL d   1      -9.779   3.552  -4.816 -0.28 +0.00    +0.004 C 
DOCKED: ATOM     45  C   UNL d   1      -8.673   2.808  -4.805 -0.40 -0.00    +0.012 C 
DOCKED: ENDBRANCH  12  44
DOCKED: BRANCH  17  46
DOCKED: ATOM     46  C   UNL d   1     -15.231  -2.535  -4.312 -0.25 +0.00    +0.004 C 
DOCKED: ATOM     47  C   UNL d   1     -15.339  -3.681  -3.627 -0.32 +0.00    +0.012 C 
DOCKED: ENDBRANCH  17  46
DOCKED: TORSDOF 10
DOCKED: TER
DOCKED: ENDMDL
________________________________________________________________________________


	BEGINNING GENETIC ALGORITHM DOCKING 14 of 100
Run: 14 Seed: 100477892 790997191 [ Run 14 of 100 GA/GALS ]
Beginning LAMARCKIAN GENETIC ALGORITHM (LGA), with a maximum of 25000000 energy evaluations.

Final-Value: -10.384


	FINAL GENETIC ALGORITHM DOCKED STATE
	_______________________________________________


Detailed state:  trans 11.449 11.957 6.998 quatxyzw 0.605115 0.680175 0.384100 -0.153835 center 8.287 34.468 -0.670 ntor 10 -60.8639 124.1209 -101.6997 31.9883 130.0921 44.0091 55.6364 47.1732 -17.3312 29.2315
State:	 11.449  11.957   6.998   0.612  0.688  0.389 -162.301    -60.86  124.12 -101.70   31.99  130.09   44.01   55.64   47.17  -17.33   29.23

DOCKED: MODEL       14
DOCKED: USER    Run = 14
DOCKED: USER    DPF = D:/Protein_go_brrr/autodock/final/mut_Y35F/heme_O2/dock.dpf
DOCKED: USER  
DOCKED: USER    Estimated Free Energy of Binding    =   -6.68 kcal/mol  [=(1)+(2)+(3)-(4)]
DOCKED: USER    Estimated Inhibition Constant, Ki   =   12.69 uM (micromolar)  [Temperature = 298.15 K]
DOCKED: USER    
DOCKED: USER    (1) Final Intermolecular Energy     =   -9.66 kcal/mol
DOCKED: USER        vdW + Hbond + desolv Energy     =   -6.98 kcal/mol
DOCKED: USER        Electrostatic Energy            =   -2.69 kcal/mol
DOCKED: USER    (2) Final Total Internal Energy     =   -0.72 kcal/mol
DOCKED: USER    (3) Torsional Free Energy           =   +2.98 kcal/mol
DOCKED: USER    (4) Unbound System's Energy  [=(2)] =   -0.72 kcal/mol
DOCKED: USER    
DOCKED: USER    
DOCKED: USER    NEWDPF move heme_O2_opt.pdbqt
DOCKED: USER    NEWDPF about 8.287000 34.468000 -0.670000
DOCKED: USER    NEWDPF tran0 11.448998 11.956765 6.997979
DOCKED: USER    NEWDPF quaternion0 0.605115 0.680175 0.384100 -0.153835
DOCKED: USER    NEWDPF axisangle0 0.612405 0.688369 0.388727 -162.301495
DOCKED: USER    NEWDPF quat0 0.612405 0.688369 0.388727 -162.301495
DOCKED: USER    NEWDPF dihe0 -60.86 124.12 -101.70 31.99 130.09 44.01 55.64 47.17 -17.33 29.23 
DOCKED: USER  keepresnum = 1 
DOCKED: USER  
DOCKED: REMARK  10 active torsions:
DOCKED: REMARK  status: ('A' for Active; 'I' for Inactive)
DOCKED: REMARK    1  A    between atoms: C_6  and  C_10 
DOCKED: REMARK    2  A    between atoms: C_10  and  C_11 
DOCKED: REMARK    3  A    between atoms: C_11  and  C_12 
DOCKED: REMARK    4  A    between atoms: C_12  and  O_14 
DOCKED: REMARK    5  A    between atoms: C_17  and  C_20 
DOCKED: REMARK    6  A    between atoms: C_24  and  C_27 
DOCKED: REMARK    7  A    between atoms: C_31  and  C_34 
DOCKED: REMARK    8  A    between atoms: C_34  and  C_35 
DOCKED: REMARK    9  A    between atoms: C_35  and  C_36 
DOCKED: REMARK   10  A    between atoms: C_36  and  O_38 
DOCKED: USER                              x       y       z     vdW  Elec       q    Type
DOCKED: USER                           _______ _______ _______ _____ _____    ______ ____
DOCKED: ROOT
DOCKED: ATOM      1  C   UNL d   1      11.746   9.911   7.473 -0.10 +0.01    +0.064 A 
DOCKED: ATOM      2  C   UNL d   1      12.064  12.338   3.403 -0.19 -0.01    +0.064 A 
DOCKED: ATOM      3  C   UNL d   1      10.787  16.406   5.622 -0.21 -0.01    +0.064 C 
DOCKED: ATOM      4  C   UNL d   1      10.921  14.016   9.904 -0.23 +0.02    +0.064 A 
DOCKED: ATOM      5  C   UNL d   1      11.938  10.240   6.185 -0.11 +0.01    +0.066 A 
DOCKED: ATOM      6  C   UNL d   1      12.299   9.327   5.190 -0.16 -0.00    -0.021 A 
DOCKED: ATOM      7  C   UNL d   1      12.434  10.036   4.019 -0.25 -0.00    -0.025 A 
DOCKED: ATOM      8  C   UNL d   1      12.104  11.355   4.322 -0.18 -0.00    +0.066 A 
DOCKED: ATOM      9  C   UNL d   1      12.888   9.451   2.700 -0.45 -0.00    +0.051 C 
DOCKED: ATOM     10  C   UNL d   1      11.703  13.734   3.656 -0.18 -0.01    +0.066 A 
DOCKED: ATOM     11  C   UNL d   1      11.518  14.678   2.639 -0.23 +0.00    -0.021 A 
DOCKED: ATOM     12  C   UNL d   1      11.132  15.852   3.258 -0.16 -0.00    +0.000 A 
DOCKED: ATOM     13  C   UNL d   1      11.115  15.556   4.649 -0.16 -0.01    +0.070 A 
DOCKED: ATOM     14  C   UNL d   1      11.676  14.460   1.139 -0.37 -0.02    +0.052 C 
DOCKED: ATOM     15  C   UNL d   1      10.791  16.155   7.043 -0.11 -0.01    +0.066 A 
DOCKED: ATOM     16  C   UNL d   1      10.597  17.132   8.019 -0.10 +0.00    -0.021 A 
DOCKED: ATOM     17  C   UNL d   1      10.632  16.474   9.248 -0.24 +0.00    +0.000 A 
DOCKED: ATOM     18  C   UNL d   1      10.846  15.126   8.925 -0.24 +0.01    +0.070 A 
DOCKED: ATOM     19  C   UNL d   1      10.452  18.598   7.697 -0.12 -0.01    +0.052 C 
DOCKED: ATOM     20  C   UNL d   1      11.168  12.719   9.632 -0.19 +0.02    +0.066 A 
DOCKED: ATOM     21  C   UNL d   1      11.210  11.715  10.595 -0.17 -0.01    -0.025 A 
DOCKED: ATOM     22  C   UNL d   1      11.417  10.534   9.917 -0.13 -0.01    -0.021 A 
DOCKED: ATOM     23  C   UNL d   1      11.512  10.866   8.562 -0.13 +0.01    +0.066 A 
DOCKED: ATOM     24  C   UNL d   1      11.063  11.873  12.086 -0.18 +0.03    +0.051 C 
DOCKED: ATOM     25  N   UNL d   1      11.863  11.491   5.669 -0.05 -0.01    -0.248 N 
DOCKED: ATOM     26  N   UNL d   1      11.468  14.266   4.882 -0.08 +0.02    -0.248 N 
DOCKED: ATOM     27  N   UNL d   1      11.015  14.963   7.588 -0.14 +0.01    -0.248 N 
DOCKED: ATOM     28  N   UNL d   1      11.406  12.201   8.398 -0.05 -0.04    -0.248 N 
DOCKED: ATOM     29 FE   UNL d   1      11.436  13.228   6.655 -0.04 +0.00    +0.000 Fe
DOCKED: ATOM     30  O   UNL d   1      12.899  13.147   6.128 -0.10 +0.00    +0.000 OA
DOCKED: ATOM     31  O   UNL d   1      12.613  13.774   7.545 -0.11 +0.00    +0.000 OA
DOCKED: ENDROOT
DOCKED: BRANCH   6  32
DOCKED: ATOM     32  C   UNL d   1      12.640   7.869   5.354 -0.20 +0.01    +0.052 C 
DOCKED: BRANCH  32  33
DOCKED: ATOM     33  C   UNL d   1      11.447   7.028   5.799 -0.09 +0.04    +0.115 C 
DOCKED: BRANCH  33  34
DOCKED: ATOM     34  C   UNL d   1      11.745   6.215   7.034 -0.16 +0.11    +0.139 C 
DOCKED: ATOM     35  O   UNL d   1      12.904   5.975   7.334 -0.01 -0.44    -0.650 OA
DOCKED: BRANCH  34  36
DOCKED: ATOM     36  O   UNL d   1      10.756   5.719   7.806 -0.12 -1.50    -0.776 OA
DOCKED: ATOM     37  H   UNL d   1      10.114   6.291   8.243 +0.04 +0.26    +0.167 HD
DOCKED: ENDBRANCH  34  36
DOCKED: ENDBRANCH  33  34
DOCKED: ENDBRANCH  32  33
DOCKED: ENDBRANCH   6  32
DOCKED: BRANCH  22  38
DOCKED: ATOM     38  C   UNL d   1      11.577   9.175  10.549 -0.09 +0.02    +0.052 C 
DOCKED: BRANCH  38  39
DOCKED: ATOM     39  C   UNL d   1      10.693   8.119   9.890 -0.13 +0.07    +0.115 C 
DOCKED: BRANCH  39  40
DOCKED: ATOM     40  C   UNL d   1       9.965   7.266  10.898 -0.13 +0.12    +0.139 C 
DOCKED: ATOM     41  O   UNL d   1       9.346   6.282  10.526 -0.20 -1.01    -0.650 OA
DOCKED: BRANCH  40  42
DOCKED: ATOM     42  O   UNL d   1      10.027   7.541  12.216 +0.01 -0.42    -0.776 OA
DOCKED: ATOM     43  H   UNL d   1       9.229   7.643  12.748 +0.03 +0.07    +0.167 HD
DOCKED: ENDBRANCH  40  42
DOCKED: ENDBRANCH  39  40
DOCKED: ENDBRANCH  38  39
DOCKED: ENDBRANCH  22  38
DOCKED: BRANCH  12  44
DOCKED: ATOM     44  C   UNL d   1      10.829  17.112   2.473 -0.14 -0.00    +0.004 C 
DOCKED: ATOM     45  C   UNL d   1       9.756  17.373   1.727 -0.21 -0.00    +0.012 C 
DOCKED: ENDBRANCH  12  44
DOCKED: BRANCH  17  46
DOCKED: ATOM     46  C   UNL d   1      10.542  17.002  10.655 -0.22 +0.00    +0.004 C 
DOCKED: ATOM     47  C   UNL d   1       9.963  18.133  11.080 -0.22 +0.00    +0.012 C 
DOCKED: ENDBRANCH  17  46
DOCKED: TORSDOF 10
DOCKED: TER
DOCKED: ENDMDL
________________________________________________________________________________


	BEGINNING GENETIC ALGORITHM DOCKING 15 of 100
Run: 15 Seed: 653794365 2084223627 [ Run 15 of 100 GA/GALS ]
Beginning LAMARCKIAN GENETIC ALGORITHM (LGA), with a maximum of 25000000 energy evaluations.

Final-Value: -9.569


	FINAL GENETIC ALGORITHM DOCKED STATE
	_______________________________________________


Detailed state:  trans 21.455 -1.890 -8.474 quatxyzw 0.348836 -0.190547 -0.642741 0.654896 center 8.287 34.468 -0.670 ntor 10 -103.1203 -126.5890 38.0655 119.2091 39.5543 -137.3459 11.3927 86.9589 171.8365 -173.7503
State:	 21.455  -1.890  -8.474   0.462 -0.252 -0.851 98.176   -103.12 -126.59   38.07  119.21   39.55 -137.35   11.39   86.96  171.84 -173.75

DOCKED: MODEL       15
DOCKED: USER    Run = 15
DOCKED: USER    DPF = D:/Protein_go_brrr/autodock/final/mut_Y35F/heme_O2/dock.dpf
DOCKED: USER  
DOCKED: USER    Estimated Free Energy of Binding    =   -6.08 kcal/mol  [=(1)+(2)+(3)-(4)]
DOCKED: USER    Estimated Inhibition Constant, Ki   =   34.82 uM (micromolar)  [Temperature = 298.15 K]
DOCKED: USER    
DOCKED: USER    (1) Final Intermolecular Energy     =   -9.06 kcal/mol
DOCKED: USER        vdW + Hbond + desolv Energy     =   -6.72 kcal/mol
DOCKED: USER        Electrostatic Energy            =   -2.34 kcal/mol
DOCKED: USER    (2) Final Total Internal Energy     =   -0.50 kcal/mol
DOCKED: USER    (3) Torsional Free Energy           =   +2.98 kcal/mol
DOCKED: USER    (4) Unbound System's Energy  [=(2)] =   -0.50 kcal/mol
DOCKED: USER    
DOCKED: USER    
DOCKED: USER    NEWDPF move heme_O2_opt.pdbqt
DOCKED: USER    NEWDPF about 8.287000 34.468000 -0.670000
DOCKED: USER    NEWDPF tran0 21.455048 -1.890459 -8.474169
DOCKED: USER    NEWDPF quaternion0 0.348836 -0.190547 -0.642741 0.654896
DOCKED: USER    NEWDPF axisangle0 0.461595 -0.252139 -0.850503 98.176409
DOCKED: USER    NEWDPF quat0 0.461595 -0.252139 -0.850503 98.176409
DOCKED: USER    NEWDPF dihe0 -103.12 -126.59 38.07 119.21 39.55 -137.35 11.39 86.96 171.84 -173.75 
DOCKED: USER  keepresnum = 1 
DOCKED: USER  
DOCKED: REMARK  10 active torsions:
DOCKED: REMARK  status: ('A' for Active; 'I' for Inactive)
DOCKED: REMARK    1  A    between atoms: C_6  and  C_10 
DOCKED: REMARK    2  A    between atoms: C_10  and  C_11 
DOCKED: REMARK    3  A    between atoms: C_11  and  C_12 
DOCKED: REMARK    4  A    between atoms: C_12  and  O_14 
DOCKED: REMARK    5  A    between atoms: C_17  and  C_20 
DOCKED: REMARK    6  A    between atoms: C_24  and  C_27 
DOCKED: REMARK    7  A    between atoms: C_31  and  C_34 
DOCKED: REMARK    8  A    between atoms: C_34  and  C_35 
DOCKED: REMARK    9  A    between atoms: C_35  and  C_36 
DOCKED: REMARK   10  A    between atoms: C_36  and  O_38 
DOCKED: USER                              x       y       z     vdW  Elec       q    Type
DOCKED: USER                           _______ _______ _______ _____ _____    ______ ____
DOCKED: ROOT
DOCKED: ATOM      1  C   UNL d   1      20.838  -3.820  -7.844 -0.11 +0.01    +0.064 A 
DOCKED: ATOM      2  C   UNL d   1      22.878  -0.195  -5.550 -0.13 +0.00    +0.064 A 
DOCKED: ATOM      3  C   UNL d   1      22.994   2.413  -9.585 -0.12 -0.03    +0.064 C 
DOCKED: ATOM      4  C   UNL d   1      20.461  -1.126 -11.849 -0.17 -0.02    +0.064 A 
DOCKED: ATOM      5  C   UNL d   1      21.382  -3.046  -6.890 -0.10 +0.00    +0.066 A 
DOCKED: ATOM      6  C   UNL d   1      21.559  -3.447  -5.563 -0.10 -0.00    -0.021 A 
DOCKED: ATOM      7  C   UNL d   1      22.110  -2.383  -4.888 -0.19 -0.00    -0.025 A 
DOCKED: ATOM      8  C   UNL d   1      22.299  -1.378  -5.833 -0.16 +0.00    +0.066 A 
DOCKED: ATOM      9  C   UNL d   1      22.399  -2.356  -3.403 -0.14 +0.01    +0.051 C 
DOCKED: ATOM     10  C   UNL d   1      23.124   0.889  -6.503 -0.07 -0.00    +0.066 A 
DOCKED: ATOM     11  C   UNL d   1      23.875   2.028  -6.195 -0.05 +0.00    -0.021 A 
DOCKED: ATOM     12  C   UNL d   1      23.935   2.784  -7.351 -0.06 -0.00    +0.000 A 
DOCKED: ATOM     13  C   UNL d   1      23.190   2.053  -8.317 -0.06 -0.02    +0.070 A 
DOCKED: ATOM     14  C   UNL d   1      24.532   2.368  -4.862 -0.04 +0.00    +0.052 C 
DOCKED: ATOM     15  C   UNL d   1      22.217   1.719 -10.583 -0.13 -0.02    +0.066 A 
DOCKED: ATOM     16  C   UNL d   1      21.913   2.230 -11.845 -0.17 +0.01    -0.021 A 
DOCKED: ATOM     17  C   UNL d   1      21.191   1.238 -12.508 -0.23 -0.00    +0.000 A 
DOCKED: ATOM     18  C   UNL d   1      21.109   0.182 -11.590 -0.19 -0.02    +0.070 A 
DOCKED: ATOM     19  C   UNL d   1      22.288   3.624 -12.280 -0.15 -0.04    +0.052 C 
DOCKED: ATOM     20  C   UNL d   1      20.327  -2.144 -10.977 -0.18 -0.01    +0.066 A 
DOCKED: ATOM     21  C   UNL d   1      19.722  -3.360 -11.283 -0.17 +0.00    -0.025 A 
DOCKED: ATOM     22  C   UNL d   1      19.845  -4.149 -10.162 -0.11 +0.00    -0.021 A 
DOCKED: ATOM     23  C   UNL d   1      20.506  -3.377  -9.203 -0.11 +0.00    +0.066 A 
DOCKED: ATOM     24  C   UNL d   1      19.058  -3.747 -12.579 -0.18 -0.02    +0.051 C 
DOCKED: ATOM     25  N   UNL d   1      21.790  -1.763  -7.051 -0.10 +0.01    -0.248 N 
DOCKED: ATOM     26  N   UNL d   1      22.696   0.903  -7.791 -0.03 +0.03    -0.248 N 
DOCKED: ATOM     27  N   UNL d   1      21.671   0.520 -10.402 -0.10 +0.06    -0.248 N 
DOCKED: ATOM     28  N   UNL d   1      20.757  -2.143  -9.687 -0.11 +0.02    -0.248 N 
DOCKED: ATOM     29 FE   UNL d   1      21.719  -0.629  -8.748 -0.04 -0.00    +0.000 Fe
DOCKED: ATOM     30  O   UNL d   1      20.762  -0.137  -7.624 -0.39 -0.00    +0.000 OA
DOCKED: ATOM     31  O   UNL d   1      20.281  -0.114  -9.124 -0.44 -0.00    +0.000 OA
DOCKED: ENDROOT
DOCKED: BRANCH   6  32
DOCKED: ATOM     32  C   UNL d   1      21.103  -4.731  -4.918 -0.16 +0.02    +0.052 C 
DOCKED: BRANCH  32  33
DOCKED: ATOM     33  C   UNL d   1      19.876  -4.544  -4.031 -0.24 +0.08    +0.115 C 
DOCKED: BRANCH  33  34
DOCKED: ATOM     34  C   UNL d   1      19.560  -5.777  -3.221 -0.14 +0.12    +0.139 C 
DOCKED: ATOM     35  O   UNL d   1      18.553  -6.420  -3.468 -0.05 -0.99    -0.650 OA
DOCKED: BRANCH  34  36
DOCKED: ATOM     36  O   UNL d   1      20.354  -6.172  -2.204 +0.05 -0.27    -0.776 OA
DOCKED: ATOM     37  H   UNL d   1      20.972  -6.906  -2.294 +0.02 +0.04    +0.167 HD
DOCKED: ENDBRANCH  34  36
DOCKED: ENDBRANCH  33  34
DOCKED: ENDBRANCH  32  33
DOCKED: ENDBRANCH   6  32
DOCKED: BRANCH  22  38
DOCKED: ATOM     38  C   UNL d   1      19.297  -5.545 -10.007 -0.08 +0.00    +0.052 C 
DOCKED: BRANCH  38  39
DOCKED: ATOM     39  C   UNL d   1      17.775  -5.562  -9.880 -0.13 +0.02    +0.115 C 
DOCKED: BRANCH  39  40
DOCKED: ATOM     40  C   UNL d   1      17.317  -5.561  -8.443 -0.03 +0.12    +0.139 C 
DOCKED: ATOM     41  O   UNL d   1      18.132  -5.414  -7.547 -0.20 -0.91    -0.650 OA
DOCKED: BRANCH  40  42
DOCKED: ATOM     42  O   UNL d   1      16.011  -5.668  -8.129 -0.55 -0.71    -0.776 OA
DOCKED: ATOM     43  H   UNL d   1      15.566  -5.006  -7.587 -0.22 +0.17    +0.167 HD
DOCKED: ENDBRANCH  40  42
DOCKED: ENDBRANCH  39  40
DOCKED: ENDBRANCH  38  39
DOCKED: ENDBRANCH  22  38
DOCKED: BRANCH  12  44
DOCKED: ATOM     44  C   UNL d   1      24.679   4.102  -7.412 -0.07 -0.00    +0.004 C 
DOCKED: ATOM     45  C   UNL d   1      24.372   5.183  -8.127 -0.10 -0.00    +0.012 C 
DOCKED: ENDBRANCH  12  44
DOCKED: BRANCH  17  46
DOCKED: ATOM     46  C   UNL d   1      20.544   1.229 -13.868 -0.30 -0.00    +0.004 C 
DOCKED: ATOM     47  C   UNL d   1      20.885   0.506 -14.942 -0.18 -0.00    +0.012 C 
DOCKED: ENDBRANCH  17  46
DOCKED: TORSDOF 10
DOCKED: TER
DOCKED: ENDMDL
________________________________________________________________________________


	BEGINNING GENETIC ALGORITHM DOCKING 16 of 100
Run: 16 Seed: 572095910 1155610594 [ Run 16 of 100 GA/GALS ]
Beginning LAMARCKIAN GENETIC ALGORITHM (LGA), with a maximum of 25000000 energy evaluations.

Final-Value: -10.387


	FINAL GENETIC ALGORITHM DOCKED STATE
	_______________________________________________


Detailed state:  trans 12.160 6.979 9.403 quatxyzw -0.308355 -0.695379 0.013307 0.648990 center 8.287 34.468 -0.670 ntor 10 33.4336 3.8017 102.3416 48.8579 41.3049 -150.8534 -147.9943 -62.6424 -19.2215 -168.7182
State:	 12.160   6.979   9.403  -0.405 -0.914  0.017 99.069     33.43    3.80  102.34   48.86   41.30 -150.85 -147.99  -62.64  -19.22 -168.72

DOCKED: MODEL       16
DOCKED: USER    Run = 16
DOCKED: USER    DPF = D:/Protein_go_brrr/autodock/final/mut_Y35F/heme_O2/dock.dpf
DOCKED: USER  
DOCKED: USER    Estimated Free Energy of Binding    =   -6.66 kcal/mol  [=(1)+(2)+(3)-(4)]
DOCKED: USER    Estimated Inhibition Constant, Ki   =   13.12 uM (micromolar)  [Temperature = 298.15 K]
DOCKED: USER    
DOCKED: USER    (1) Final Intermolecular Energy     =   -9.64 kcal/mol
DOCKED: USER        vdW + Hbond + desolv Energy     =   -6.12 kcal/mol
DOCKED: USER        Electrostatic Energy            =   -3.52 kcal/mol
DOCKED: USER    (2) Final Total Internal Energy     =   -0.74 kcal/mol
DOCKED: USER    (3) Torsional Free Energy           =   +2.98 kcal/mol
DOCKED: USER    (4) Unbound System's Energy  [=(2)] =   -0.74 kcal/mol
DOCKED: USER    
DOCKED: USER    
DOCKED: USER    NEWDPF move heme_O2_opt.pdbqt
DOCKED: USER    NEWDPF about 8.287000 34.468000 -0.670000
DOCKED: USER    NEWDPF tran0 12.159959 6.979297 9.403394
DOCKED: USER    NEWDPF quaternion0 -0.308355 -0.695379 0.013307 0.648990
DOCKED: USER    NEWDPF axisangle0 -0.405305 -0.914014 0.017491 99.069043
DOCKED: USER    NEWDPF quat0 -0.405305 -0.914014 0.017491 99.069043
DOCKED: USER    NEWDPF dihe0 33.43 3.80 102.34 48.86 41.30 -150.85 -147.99 -62.64 -19.22 -168.72 
DOCKED: USER  keepresnum = 1 
DOCKED: USER  
DOCKED: REMARK  10 active torsions:
DOCKED: REMARK  status: ('A' for Active; 'I' for Inactive)
DOCKED: REMARK    1  A    between atoms: C_6  and  C_10 
DOCKED: REMARK    2  A    between atoms: C_10  and  C_11 
DOCKED: REMARK    3  A    between atoms: C_11  and  C_12 
DOCKED: REMARK    4  A    between atoms: C_12  and  O_14 
DOCKED: REMARK    5  A    between atoms: C_17  and  C_20 
DOCKED: REMARK    6  A    between atoms: C_24  and  C_27 
DOCKED: REMARK    7  A    between atoms: C_31  and  C_34 
DOCKED: REMARK    8  A    between atoms: C_34  and  C_35 
DOCKED: REMARK    9  A    between atoms: C_35  and  C_36 
DOCKED: REMARK   10  A    between atoms: C_36  and  O_38 
DOCKED: USER                              x       y       z     vdW  Elec       q    Type
DOCKED: USER                           _______ _______ _______ _____ _____    ______ ____
DOCKED: ROOT
DOCKED: ATOM      1  C   UNL d   1      11.652   7.032  11.462 -0.06 +0.04    +0.064 A 
DOCKED: ATOM      2  C   UNL d   1      13.789   3.756   8.768 -0.09 +0.05    +0.064 A 
DOCKED: ATOM      3  C   UNL d   1      13.340   6.534   4.872 -0.25 +0.02    +0.064 C 
DOCKED: ATOM      4  C   UNL d   1      11.571  10.110   7.726 -0.11 +0.01    +0.064 A 
DOCKED: ATOM      5  C   UNL d   1      12.272   5.915  11.048 -0.01 +0.07    +0.066 A 
DOCKED: ATOM      6  C   UNL d   1      12.571   4.832  11.879 -0.06 -0.02    -0.021 A 
DOCKED: ATOM      7  C   UNL d   1      13.229   3.901  11.109 -0.06 -0.02    -0.025 A 
DOCKED: ATOM      8  C   UNL d   1      13.270   4.420   9.818 +0.03 +0.08    +0.066 A 
DOCKED: ATOM      9  C   UNL d   1      13.803   2.600  11.627 -0.05 +0.03    +0.051 C 
DOCKED: ATOM     10  C   UNL d   1      13.840   4.239   7.388 -0.14 +0.04    +0.066 A 
DOCKED: ATOM     11  C   UNL d   1      14.241   3.444   6.308 -0.21 -0.01    -0.021 A 
DOCKED: ATOM     12  C   UNL d   1      14.101   4.222   5.173 -0.31 +0.00    +0.000 A 
DOCKED: ATOM     13  C   UNL d   1      13.624   5.479   5.637 -0.19 +0.03    +0.070 A 
DOCKED: ATOM     14  C   UNL d   1      14.711   1.995   6.354 -0.24 +0.02    +0.052 C 
DOCKED: ATOM     15  C   UNL d   1      12.889   7.834   5.305 -0.17 +0.01    +0.066 A 
DOCKED: ATOM     16  C   UNL d   1      12.767   8.946   4.473 -0.23 -0.00    -0.021 A 
DOCKED: ATOM     17  C   UNL d   1      12.265   9.979   5.265 -0.15 +0.00    +0.000 A 
DOCKED: ATOM     18  C   UNL d   1      12.115   9.411   6.538 -0.09 +0.01    +0.070 A 
DOCKED: ATOM     19  C   UNL d   1      13.188   8.940   3.025 -0.36 +0.00    +0.052 C 
DOCKED: ATOM     20  C   UNL d   1      11.453   9.609   8.971 -0.11 +0.02    +0.066 A 
DOCKED: ATOM     21  C   UNL d   1      10.917  10.310  10.047 -0.16 -0.01    -0.025 A 
DOCKED: ATOM     22  C   UNL d   1      10.907   9.439  11.114 -0.12 -0.01    -0.021 A 
DOCKED: ATOM     23  C   UNL d   1      11.457   8.240  10.652 -0.07 +0.03    +0.066 A 
DOCKED: ATOM     24  C   UNL d   1      10.441  11.739  10.058 -0.14 +0.02    +0.051 C 
DOCKED: ATOM     25  N   UNL d   1      12.738   5.689   9.795 -0.05 -0.29    -0.248 N 
DOCKED: ATOM     26  N   UNL d   1      13.473   5.483   6.985 -0.08 -0.14    -0.248 N 
DOCKED: ATOM     27  N   UNL d   1      12.569   8.131   6.561 -0.04 -0.07    -0.248 N 
DOCKED: ATOM     28  N   UNL d   1      11.829   8.362   9.361 -0.03 -0.11    -0.248 N 
DOCKED: ATOM     29 FE   UNL d   1      12.645   6.935   8.180 -0.02 +0.00    +0.000 Fe
DOCKED: ATOM     30  O   UNL d   1      14.089   6.703   8.712 -0.03 +0.00    +0.000 OA
DOCKED: ATOM     31  O   UNL d   1      13.655   8.139   8.231 -0.04 +0.00    +0.000 OA
DOCKED: ENDROOT
DOCKED: BRANCH   6  32
DOCKED: ATOM     32  C   UNL d   1      12.373   4.729  13.369 -0.03 +0.03    +0.052 C 
DOCKED: BRANCH  32  33
DOCKED: ATOM     33  C   UNL d   1      10.903   4.775  13.775 -0.04 +0.06    +0.115 C 
DOCKED: BRANCH  33  34
DOCKED: ATOM     34  C   UNL d   1       9.994   4.207  12.713 +0.06 +0.15    +0.139 C 
DOCKED: ATOM     35  O   UNL d   1       9.263   4.954  12.083 -0.49 -0.99    -0.650 OA
DOCKED: BRANCH  34  36
DOCKED: ATOM     36  O   UNL d   1       9.950   2.883  12.459 -0.02 -0.80    -0.776 OA
DOCKED: ATOM     37  H   UNL d   1      10.070   2.226  13.155 +0.01 +0.09    +0.167 HD
DOCKED: ENDBRANCH  34  36
DOCKED: ENDBRANCH  33  34
DOCKED: ENDBRANCH  32  33
DOCKED: ENDBRANCH   6  32
DOCKED: BRANCH  22  38
DOCKED: ATOM     38  C   UNL d   1      10.453   9.769  12.512 -0.13 +0.02    +0.052 C 
DOCKED: BRANCH  38  39
DOCKED: ATOM     39  C   UNL d   1      11.367  10.782  13.197 -0.09 +0.06    +0.115 C 
DOCKED: BRANCH  39  40
DOCKED: ATOM     40  C   UNL d   1      10.660  12.076  13.513 -0.05 +0.16    +0.139 C 
DOCKED: ATOM     41  O   UNL d   1       9.520  12.256  13.116 -0.09 -1.03    -0.650 OA
DOCKED: BRANCH  40  42
DOCKED: ATOM     42  O   UNL d   1      11.246  13.022  14.271 -0.24 -1.23    -0.776 OA
DOCKED: ATOM     43  H   UNL d   1      12.164  12.943  14.557 +0.01 +0.14    +0.167 HD
DOCKED: ENDBRANCH  40  42
DOCKED: ENDBRANCH  39  40
DOCKED: ENDBRANCH  38  39
DOCKED: ENDBRANCH  22  38
DOCKED: BRANCH  12  44
DOCKED: ATOM     44  C   UNL d   1      14.434   3.696   3.793 -0.47 +0.00    +0.004 C 
DOCKED: ATOM     45  C   UNL d   1      15.631   3.618   3.213 -0.43 +0.00    +0.012 C 
DOCKED: ENDBRANCH  12  44
DOCKED: BRANCH  17  46
DOCKED: ATOM     46  C   UNL d   1      11.981  11.422   4.944 -0.19 +0.00    +0.004 C 
DOCKED: ATOM     47  C   UNL d   1      11.410  11.929   3.844 -0.28 -0.00    +0.012 C 
DOCKED: ENDBRANCH  17  46
DOCKED: TORSDOF 10
DOCKED: TER
DOCKED: ENDMDL
________________________________________________________________________________


	BEGINNING GENETIC ALGORITHM DOCKING 17 of 100
Run: 17 Seed: 1553553214 1892388422 [ Run 17 of 100 GA/GALS ]
Beginning LAMARCKIAN GENETIC ALGORITHM (LGA), with a maximum of 25000000 energy evaluations.

Final-Value: -9.450


	FINAL GENETIC ALGORITHM DOCKED STATE
	_______________________________________________


Detailed state:  trans 3.603 2.422 -15.480 quatxyzw 0.829047 0.359786 -0.239759 0.354612 center 8.287 34.468 -0.670 ntor 10 133.2020 -90.0284 -57.3880 130.4637 -111.6236 124.8524 112.5210 -139.5193 13.5355 -22.3898
State:	  3.603   2.422 -15.480   0.887  0.385 -0.256 138.461    133.20  -90.03  -57.39  130.46 -111.62  124.85  112.52 -139.52   13.54  -22.39

DOCKED: MODEL       17
DOCKED: USER    Run = 17
DOCKED: USER    DPF = D:/Protein_go_brrr/autodock/final/mut_Y35F/heme_O2/dock.dpf
DOCKED: USER  
DOCKED: USER    Estimated Free Energy of Binding    =   -4.28 kcal/mol  [=(1)+(2)+(3)-(4)]
DOCKED: USER    Estimated Inhibition Constant, Ki   =  724.46 uM (micromolar)  [Temperature = 298.15 K]
DOCKED: USER    
DOCKED: USER    (1) Final Intermolecular Energy     =   -7.27 kcal/mol
DOCKED: USER        vdW + Hbond + desolv Energy     =   -6.36 kcal/mol
DOCKED: USER        Electrostatic Energy            =   -0.91 kcal/mol
DOCKED: USER    (2) Final Total Internal Energy     =   -2.18 kcal/mol
DOCKED: USER    (3) Torsional Free Energy           =   +2.98 kcal/mol
DOCKED: USER    (4) Unbound System's Energy  [=(2)] =   -2.18 kcal/mol
DOCKED: USER    
DOCKED: USER    
DOCKED: USER    NEWDPF move heme_O2_opt.pdbqt
DOCKED: USER    NEWDPF about 8.287000 34.468000 -0.670000
DOCKED: USER    NEWDPF tran0 3.603203 2.422069 -15.479849
DOCKED: USER    NEWDPF quaternion0 0.829047 0.359786 -0.239759 0.354612
DOCKED: USER    NEWDPF axisangle0 0.886669 0.384792 -0.256423 138.460615
DOCKED: USER    NEWDPF quat0 0.886669 0.384792 -0.256423 138.460615
DOCKED: USER    NEWDPF dihe0 133.20 -90.03 -57.39 130.46 -111.62 124.85 112.52 -139.52 13.54 -22.39 
DOCKED: USER  keepresnum = 1 
DOCKED: USER  
DOCKED: REMARK  10 active torsions:
DOCKED: REMARK  status: ('A' for Active; 'I' for Inactive)
DOCKED: REMARK    1  A    between atoms: C_6  and  C_10 
DOCKED: REMARK    2  A    between atoms: C_10  and  C_11 
DOCKED: REMARK    3  A    between atoms: C_11  and  C_12 
DOCKED: REMARK    4  A    between atoms: C_12  and  O_14 
DOCKED: REMARK    5  A    between atoms: C_17  and  C_20 
DOCKED: REMARK    6  A    between atoms: C_24  and  C_27 
DOCKED: REMARK    7  A    between atoms: C_31  and  C_34 
DOCKED: REMARK    8  A    between atoms: C_34  and  C_35 
DOCKED: REMARK    9  A    between atoms: C_35  and  C_36 
DOCKED: REMARK   10  A    between atoms: C_36  and  O_38 
DOCKED: USER                              x       y       z     vdW  Elec       q    Type
DOCKED: USER                           _______ _______ _______ _____ _____    ______ ____
DOCKED: ROOT
DOCKED: ATOM      1  C   UNL d   1       3.211   0.361 -15.165 -0.07 +0.01    +0.064 A 
DOCKED: ATOM      2  C   UNL d   1       0.364   4.137 -15.607 -0.11 -0.00    +0.064 A 
DOCKED: ATOM      3  C   UNL d   1       4.153   7.053 -16.096 -0.24 -0.01    +0.064 C 
DOCKED: ATOM      4  C   UNL d   1       7.078   3.114 -16.121 -0.18 -0.00    +0.064 A 
DOCKED: ATOM      5  C   UNL d   1       2.128   1.150 -15.247 -0.09 +0.00    +0.066 A 
DOCKED: ATOM      6  C   UNL d   1       0.813   0.690 -15.127 -0.09 -0.00    -0.021 A 
DOCKED: ATOM      7  C   UNL d   1      -0.013   1.775 -15.298 -0.09 -0.00    -0.025 A 
DOCKED: ATOM      8  C   UNL d   1       0.820   2.877 -15.469 -0.09 +0.00    +0.066 A 
DOCKED: ATOM      9  C   UNL d   1      -1.525   1.717 -15.321 -0.05 +0.00    +0.051 C 
DOCKED: ATOM     10  C   UNL d   1       1.190   5.335 -15.766 -0.14 -0.00    +0.066 A 
DOCKED: ATOM     11  C   UNL d   1       0.673   6.635 -15.740 -0.17 +0.00    -0.021 A 
DOCKED: ATOM     12  C   UNL d   1       1.752   7.491 -15.862 -0.20 -0.00    +0.000 A 
DOCKED: ATOM     13  C   UNL d   1       2.891   6.645 -15.970 -0.14 -0.01    +0.070 A 
DOCKED: ATOM     14  C   UNL d   1      -0.787   7.045 -15.578 -0.12 -0.00    +0.052 C 
DOCKED: ATOM     15  C   UNL d   1       5.329   6.229 -16.244 -0.25 -0.01    +0.066 A 
DOCKED: ATOM     16  C   UNL d   1       6.603   6.715 -16.536 -0.22 +0.00    -0.021 A 
DOCKED: ATOM     17  C   UNL d   1       7.454   5.610 -16.550 -0.21 -0.00    +0.000 A 
DOCKED: ATOM     18  C   UNL d   1       6.624   4.518 -16.258 -0.24 -0.01    +0.070 A 
DOCKED: ATOM     19  C   UNL d   1       6.882   8.168 -16.829 -0.16 -0.01    +0.052 C 
DOCKED: ATOM     20  C   UNL d   1       6.303   2.037 -15.885 -0.19 -0.00    +0.066 A 
DOCKED: ATOM     21  C   UNL d   1       6.789   0.740 -15.749 -0.15 -0.00    -0.025 A 
DOCKED: ATOM     22  C   UNL d   1       5.705  -0.053 -15.449 -0.13 -0.00    -0.021 A 
DOCKED: ATOM     23  C   UNL d   1       4.590   0.789 -15.431 -0.08 +0.00    +0.066 A 
DOCKED: ATOM     24  C   UNL d   1       8.216   0.281 -15.901 -0.16 -0.00    +0.051 C 
DOCKED: ATOM     25  N   UNL d   1       2.137   2.482 -15.503 -0.08 -0.00    -0.248 N 
DOCKED: ATOM     26  N   UNL d   1       2.539   5.335 -15.915 -0.13 +0.03    -0.248 N 
DOCKED: ATOM     27  N   UNL d   1       5.327   4.903 -16.150 -0.21 +0.03    -0.248 N 
DOCKED: ATOM     28  N   UNL d   1       4.951   2.052 -15.741 -0.09 -0.00    -0.248 N 
DOCKED: ATOM     29 FE   UNL d   1       3.756   3.683 -15.829 -0.05 -0.00    +0.000 Fe
DOCKED: ATOM     30  O   UNL d   1       2.852   3.493 -17.081 -0.11 -0.00    +0.000 OA
DOCKED: ATOM     31  O   UNL d   1       4.419   3.507 -17.244 -0.11 -0.00    +0.000 OA
DOCKED: ENDROOT
DOCKED: BRANCH   6  32
DOCKED: ATOM     32  C   UNL d   1       0.343  -0.736 -14.995 -0.06 +0.00    +0.052 C 
DOCKED: BRANCH  32  33
DOCKED: ATOM     33  C   UNL d   1       0.073  -1.139 -13.549 -0.12 +0.01    +0.115 C 
DOCKED: BRANCH  33  34
DOCKED: ATOM     34  C   UNL d   1       1.340  -1.246 -12.736 -0.21 +0.04    +0.139 C 
DOCKED: ATOM     35  O   UNL d   1       1.687  -0.310 -12.034 -0.00 -0.14    -0.650 OA
DOCKED: BRANCH  34  36
DOCKED: ATOM     36  O   UNL d   1       2.118  -2.347 -12.787 -0.14 -0.51    -0.776 OA
DOCKED: ATOM     37  H   UNL d   1       3.075  -2.292 -12.886 +0.06 +0.17    +0.167 HD
DOCKED: ENDBRANCH  34  36
DOCKED: ENDBRANCH  33  34
DOCKED: ENDBRANCH  32  33
DOCKED: ENDBRANCH   6  32
DOCKED: BRANCH  22  38
DOCKED: ATOM     38  C   UNL d   1       5.737  -1.547 -15.256 -0.11 +0.01    +0.052 C 
DOCKED: BRANCH  38  39
DOCKED: ATOM     39  C   UNL d   1       6.240  -1.944 -13.869 -0.21 +0.04    +0.115 C 
DOCKED: BRANCH  39  40
DOCKED: ATOM     40  C   UNL d   1       5.724  -1.031 -12.786 -0.26 +0.05    +0.139 C 
DOCKED: ATOM     41  O   UNL d   1       6.365  -0.042 -12.470 -0.05 -0.14    -0.650 OA
DOCKED: BRANCH  40  42
DOCKED: ATOM     42  O   UNL d   1       4.536  -1.259 -12.191 -0.00 -0.52    -0.776 OA
DOCKED: ATOM     43  H   UNL d   1       3.714  -0.913 -12.558 +0.07 +0.08    +0.167 HD
DOCKED: ENDBRANCH  40  42
DOCKED: ENDBRANCH  39  40
DOCKED: ENDBRANCH  38  39
DOCKED: ENDBRANCH  22  38
DOCKED: BRANCH  12  44
DOCKED: ATOM     44  C   UNL d   1       1.588   8.996 -15.866 -0.19 -0.00    +0.004 C 
DOCKED: ATOM     45  C   UNL d   1       2.085   9.876 -14.997 -0.27 -0.00    +0.012 C 
DOCKED: ENDBRANCH  12  44
DOCKED: BRANCH  17  46
DOCKED: ATOM     46  C   UNL d   1       8.922   5.497 -16.862 -0.21 -0.00    +0.004 C 
DOCKED: ATOM     47  C   UNL d   1       9.896   4.993 -16.093 -0.30 -0.00    +0.012 C 
DOCKED: ENDBRANCH  17  46
DOCKED: TORSDOF 10
DOCKED: TER
DOCKED: ENDMDL
________________________________________________________________________________


	BEGINNING GENETIC ALGORITHM DOCKING 18 of 100
Run: 18 Seed: 911389082 967757983 [ Run 18 of 100 GA/GALS ]
Beginning LAMARCKIAN GENETIC ALGORITHM (LGA), with a maximum of 25000000 energy evaluations.

Final-Value: -11.344


	FINAL GENETIC ALGORITHM DOCKED STATE
	_______________________________________________


Detailed state:  trans 15.556 -0.278 5.711 quatxyzw 0.285995 0.266729 -0.113952 -0.913278 center 8.287 34.468 -0.670 ntor 10 -177.7135 -36.2876 -41.8400 36.3360 118.0683 179.4043 -84.6341 35.9656 -176.5062 165.9338
State:	 15.556  -0.278   5.711   0.702  0.655 -0.280 -48.075   -177.71  -36.29  -41.84   36.34  118.07  179.40  -84.63   35.97 -176.51  165.93

DOCKED: MODEL       18
DOCKED: USER    Run = 18
DOCKED: USER    DPF = D:/Protein_go_brrr/autodock/final/mut_Y35F/heme_O2/dock.dpf
DOCKED: USER  
DOCKED: USER    Estimated Free Energy of Binding    =   -6.50 kcal/mol  [=(1)+(2)+(3)-(4)]
DOCKED: USER    Estimated Inhibition Constant, Ki   =   17.25 uM (micromolar)  [Temperature = 298.15 K]
DOCKED: USER    
DOCKED: USER    (1) Final Intermolecular Energy     =   -9.48 kcal/mol
DOCKED: USER        vdW + Hbond + desolv Energy     =   -6.62 kcal/mol
DOCKED: USER        Electrostatic Energy            =   -2.86 kcal/mol
DOCKED: USER    (2) Final Total Internal Energy     =   -1.86 kcal/mol
DOCKED: USER    (3) Torsional Free Energy           =   +2.98 kcal/mol
DOCKED: USER    (4) Unbound System's Energy  [=(2)] =   -1.86 kcal/mol
DOCKED: USER    
DOCKED: USER    
DOCKED: USER    NEWDPF move heme_O2_opt.pdbqt
DOCKED: USER    NEWDPF about 8.287000 34.468000 -0.670000
DOCKED: USER    NEWDPF tran0 15.555706 -0.278422 5.711371
DOCKED: USER    NEWDPF quaternion0 0.285995 0.266729 -0.113952 -0.913278
DOCKED: USER    NEWDPF axisangle0 0.702111 0.654813 -0.279750 -48.075181
DOCKED: USER    NEWDPF quat0 0.702111 0.654813 -0.279750 -48.075181
DOCKED: USER    NEWDPF dihe0 -177.71 -36.29 -41.84 36.34 118.07 179.40 -84.63 35.97 -176.51 165.93 
DOCKED: USER  keepresnum = 1 
DOCKED: USER  
DOCKED: REMARK  10 active torsions:
DOCKED: REMARK  status: ('A' for Active; 'I' for Inactive)
DOCKED: REMARK    1  A    between atoms: C_6  and  C_10 
DOCKED: REMARK    2  A    between atoms: C_10  and  C_11 
DOCKED: REMARK    3  A    between atoms: C_11  and  C_12 
DOCKED: REMARK    4  A    between atoms: C_12  and  O_14 
DOCKED: REMARK    5  A    between atoms: C_17  and  C_20 
DOCKED: REMARK    6  A    between atoms: C_24  and  C_27 
DOCKED: REMARK    7  A    between atoms: C_31  and  C_34 
DOCKED: REMARK    8  A    between atoms: C_34  and  C_35 
DOCKED: REMARK    9  A    between atoms: C_35  and  C_36 
DOCKED: REMARK   10  A    between atoms: C_36  and  O_38 
DOCKED: USER                              x       y       z     vdW  Elec       q    Type
DOCKED: USER                           _______ _______ _______ _____ _____    ______ ____
DOCKED: ROOT
DOCKED: ATOM      1  C   UNL d   1      13.880   0.780   6.467 -0.29 +0.02    +0.064 A 
DOCKED: ATOM      2  C   UNL d   1      15.438  -3.657   7.132 -0.12 +0.02    +0.064 A 
DOCKED: ATOM      3  C   UNL d   1      19.129  -2.907   4.147 -0.12 +0.01    +0.064 C 
DOCKED: ATOM      4  C   UNL d   1      17.806   1.806   3.827 -0.28 +0.02    +0.064 A 
DOCKED: ATOM      5  C   UNL d   1      14.004  -0.488   6.893 -0.22 +0.01    +0.066 A 
DOCKED: ATOM      6  C   UNL d   1      13.107  -1.111   7.765 -0.26 -0.01    -0.021 A 
DOCKED: ATOM      7  C   UNL d   1      13.581  -2.382   7.993 -0.20 -0.01    -0.025 A 
DOCKED: ATOM      8  C   UNL d   1      14.728  -2.516   7.215 -0.16 +0.01    +0.066 A 
DOCKED: ATOM      9  C   UNL d   1      12.955  -3.382   8.940 -0.16 +0.01    +0.051 C 
DOCKED: ATOM     10  C   UNL d   1      16.635  -3.865   6.316 -0.08 +0.01    +0.066 A 
DOCKED: ATOM     11  C   UNL d   1      17.239  -5.115   6.140 -0.05 -0.00    -0.021 A 
DOCKED: ATOM     12  C   UNL d   1      18.294  -4.923   5.268 -0.04 +0.00    +0.000 A 
DOCKED: ATOM     13  C   UNL d   1      18.282  -3.533   4.964 -0.07 +0.01    +0.070 A 
DOCKED: ATOM     14  C   UNL d   1      16.810  -6.442   6.755 -0.07 +0.02    +0.052 C 
DOCKED: ATOM     15  C   UNL d   1      19.171  -1.498   3.842 -0.16 +0.01    +0.066 A 
DOCKED: ATOM     16  C   UNL d   1      20.183  -0.878   3.108 -0.20 -0.00    -0.021 A 
DOCKED: ATOM     17  C   UNL d   1      19.827   0.467   3.004 -0.29 +0.00    +0.000 A 
DOCKED: ATOM     18  C   UNL d   1      18.609   0.568   3.690 -0.26 +0.02    +0.070 A 
DOCKED: ATOM     19  C   UNL d   1      21.412  -1.606   2.623 -0.14 +0.01    +0.052 C 
DOCKED: ATOM     20  C   UNL d   1      16.656   1.947   4.514 -0.25 +0.02    +0.066 A 
DOCKED: ATOM     21  C   UNL d   1      15.935   3.136   4.592 -0.33 -0.01    -0.025 A 
DOCKED: ATOM     22  C   UNL d   1      14.799   2.855   5.318 -0.31 -0.01    -0.021 A 
DOCKED: ATOM     23  C   UNL d   1      14.878   1.505   5.672 -0.22 +0.02    +0.066 A 
DOCKED: ATOM     24  C   UNL d   1      16.313   4.472   4.007 -0.37 +0.02    +0.051 C 
DOCKED: ATOM     25  N   UNL d   1      15.023  -1.327   6.589 -0.10 -0.05    -0.248 N 
DOCKED: ATOM     26  N   UNL d   1      17.272  -2.896   5.610 -0.05 -0.04    -0.248 N 
DOCKED: ATOM     27  N   UNL d   1      18.264  -0.618   4.255 +0.00 -0.04    -0.248 N 
DOCKED: ATOM     28  N   UNL d   1      16.030   0.969   5.220 +0.08 -0.06    -0.248 N 
DOCKED: ATOM     29 FE   UNL d   1      16.649  -0.949   5.412 -0.04 +0.00    +0.000 Fe
DOCKED: ATOM     30  O   UNL d   1      16.995  -1.145   6.917 -0.10 +0.00    +0.000 OA
DOCKED: ATOM     31  O   UNL d   1      17.736  -0.033   6.085 -0.11 +0.00    +0.000 OA
DOCKED: ENDROOT
DOCKED: BRANCH   6  32
DOCKED: ATOM     32  C   UNL d   1      11.925  -0.496   8.469 +0.14 +0.02    +0.052 C 
DOCKED: BRANCH  32  33
DOCKED: ATOM     33  C   UNL d   1      12.271   0.031   9.858 -0.10 +0.06    +0.115 C 
DOCKED: BRANCH  33  34
DOCKED: ATOM     34  C   UNL d   1      12.647   1.492   9.842 -0.03 +0.13    +0.139 C 
DOCKED: ATOM     35  O   UNL d   1      13.222   1.956   8.871 -0.10 -0.53    -0.650 OA
DOCKED: BRANCH  34  36
DOCKED: ATOM     36  O   UNL d   1      12.387   2.297  10.893 -0.20 -0.95    -0.776 OA
DOCKED: ATOM     37  H   UNL d   1      12.590   3.239  10.878 +0.00 +0.26    +0.167 HD
DOCKED: ENDBRANCH  34  36
DOCKED: ENDBRANCH  33  34
DOCKED: ENDBRANCH  32  33
DOCKED: ENDBRANCH   6  32
DOCKED: BRANCH  22  38
DOCKED: ATOM     38  C   UNL d   1      13.733   3.849   5.700 -0.22 +0.03    +0.052 C 
DOCKED: BRANCH  38  39
DOCKED: ATOM     39  C   UNL d   1      13.991   4.482   7.066 -0.14 +0.06    +0.115 C 
DOCKED: BRANCH  39  40
DOCKED: ATOM     40  C   UNL d   1      12.716   4.761   7.822 -0.13 +0.16    +0.139 C 
DOCKED: ATOM     41  O   UNL d   1      11.719   5.121   7.217 -0.35 -0.85    -0.650 OA
DOCKED: BRANCH  40  42
DOCKED: ATOM     42  O   UNL d   1      12.641   4.571   9.153 -0.05 -1.50    -0.776 OA
DOCKED: ATOM     43  H   UNL d   1      13.132   3.865   9.591 +0.01 +0.25    +0.167 HD
DOCKED: ENDBRANCH  40  42
DOCKED: ENDBRANCH  39  40
DOCKED: ENDBRANCH  38  39
DOCKED: ENDBRANCH  22  38
DOCKED: BRANCH  12  44
DOCKED: ATOM     44  C   UNL d   1      19.189  -6.061   4.825 -0.01 +0.00    +0.004 C 
DOCKED: ATOM     45  C   UNL d   1      19.598  -6.349   3.590 -0.02 +0.00    +0.012 C 
DOCKED: ENDBRANCH  12  44
DOCKED: BRANCH  17  46
DOCKED: ATOM     46  C   UNL d   1      20.547   1.634   2.383 -0.20 +0.00    +0.004 C 
DOCKED: ATOM     47  C   UNL d   1      21.397   1.628   1.348 -0.27 +0.00    +0.012 C 
DOCKED: ENDBRANCH  17  46
DOCKED: TORSDOF 10
DOCKED: TER
DOCKED: ENDMDL
________________________________________________________________________________


	BEGINNING GENETIC ALGORITHM DOCKING 19 of 100
Run: 19 Seed: 1752572758 1271099707 [ Run 19 of 100 GA/GALS ]
Beginning LAMARCKIAN GENETIC ALGORITHM (LGA), with a maximum of 25000000 energy evaluations.

Final-Value: -11.452


	FINAL GENETIC ALGORITHM DOCKED STATE
	_______________________________________________


Detailed state:  trans -13.286 8.713 14.511 quatxyzw -0.872204 -0.323269 -0.112240 -0.349514 center 8.287 34.468 -0.670 ntor 10 -138.8212 73.4753 46.4269 -107.9133 57.8571 -2.5096 -95.3812 96.7808 -173.2803 -148.1593
State:	-13.286   8.713  14.511  -0.931 -0.345 -0.120 -139.085   -138.82   73.48   46.43 -107.91   57.86   -2.51  -95.38   96.78 -173.28 -148.16

DOCKED: MODEL       19
DOCKED: USER    Run = 19
DOCKED: USER    DPF = D:/Protein_go_brrr/autodock/final/mut_Y35F/heme_O2/dock.dpf
DOCKED: USER  
DOCKED: USER    Estimated Free Energy of Binding    =   -6.40 kcal/mol  [=(1)+(2)+(3)-(4)]
DOCKED: USER    Estimated Inhibition Constant, Ki   =   20.29 uM (micromolar)  [Temperature = 298.15 K]
DOCKED: USER    
DOCKED: USER    (1) Final Intermolecular Energy     =   -9.38 kcal/mol
DOCKED: USER        vdW + Hbond + desolv Energy     =   -5.91 kcal/mol
DOCKED: USER        Electrostatic Energy            =   -3.48 kcal/mol
DOCKED: USER    (2) Final Total Internal Energy     =   -2.07 kcal/mol
DOCKED: USER    (3) Torsional Free Energy           =   +2.98 kcal/mol
DOCKED: USER    (4) Unbound System's Energy  [=(2)] =   -2.07 kcal/mol
DOCKED: USER    
DOCKED: USER    
DOCKED: USER    NEWDPF move heme_O2_opt.pdbqt
DOCKED: USER    NEWDPF about 8.287000 34.468000 -0.670000
DOCKED: USER    NEWDPF tran0 -13.286482 8.712719 14.511413
DOCKED: USER    NEWDPF quaternion0 -0.872204 -0.323269 -0.112240 -0.349514
DOCKED: USER    NEWDPF axisangle0 -0.930915 -0.345029 -0.119796 -139.084789
DOCKED: USER    NEWDPF quat0 -0.930915 -0.345029 -0.119796 -139.084789
DOCKED: USER    NEWDPF dihe0 -138.82 73.48 46.43 -107.91 57.86 -2.51 -95.38 96.78 -173.28 -148.16 
DOCKED: USER  keepresnum = 1 
DOCKED: USER  
DOCKED: REMARK  10 active torsions:
DOCKED: REMARK  status: ('A' for Active; 'I' for Inactive)
DOCKED: REMARK    1  A    between atoms: C_6  and  C_10 
DOCKED: REMARK    2  A    between atoms: C_10  and  C_11 
DOCKED: REMARK    3  A    between atoms: C_11  and  C_12 
DOCKED: REMARK    4  A    between atoms: C_12  and  O_14 
DOCKED: REMARK    5  A    between atoms: C_17  and  C_20 
DOCKED: REMARK    6  A    between atoms: C_24  and  C_27 
DOCKED: REMARK    7  A    between atoms: C_31  and  C_34 
DOCKED: REMARK    8  A    between atoms: C_34  and  C_35 
DOCKED: REMARK    9  A    between atoms: C_35  and  C_36 
DOCKED: REMARK   10  A    between atoms: C_36  and  O_38 
DOCKED: USER                              x       y       z     vdW  Elec       q    Type
DOCKED: USER                           _______ _______ _______ _____ _____    ______ ____
DOCKED: ROOT
DOCKED: ATOM      1  C   UNL d   1     -14.308   6.930  13.984 -0.09 +0.05    +0.064 A 
DOCKED: ATOM      2  C   UNL d   1     -15.271  11.520  13.236 -0.02 +0.03    +0.064 A 
DOCKED: ATOM      3  C   UNL d   1     -11.301  12.835  15.603 -0.07 +0.01    +0.064 C 
DOCKED: ATOM      4  C   UNL d   1     -10.049   8.105  15.965 -0.16 +0.02    +0.064 A 
DOCKED: ATOM      5  C   UNL d   1     -14.893   8.071  13.586 -0.06 +0.06    +0.066 A 
DOCKED: ATOM      6  C   UNL d   1     -16.098   8.128  12.880 -0.04 -0.01    -0.021 A 
DOCKED: ATOM      7  C   UNL d   1     -16.356   9.455  12.625 -0.03 -0.01    -0.025 A 
DOCKED: ATOM      8  C   UNL d   1     -15.326  10.175  13.224 -0.05 +0.04    +0.066 A 
DOCKED: ATOM      9  C   UNL d   1     -17.527   9.969  11.816 -0.00 +0.02    +0.051 C 
DOCKED: ATOM     10  C   UNL d   1     -14.229  12.331  13.868 -0.03 +0.02    +0.066 A 
DOCKED: ATOM     11  C   UNL d   1     -14.306  13.722  13.992 -0.01 -0.00    -0.021 A 
DOCKED: ATOM     12  C   UNL d   1     -13.179  14.119  14.688 -0.02 +0.00    +0.000 A 
DOCKED: ATOM     13  C   UNL d   1     -12.456  12.921  14.944 -0.05 +0.01    +0.070 A 
DOCKED: ATOM     14  C   UNL d   1     -15.422  14.633  13.493 +0.00 +0.00    +0.052 C 
DOCKED: ATOM     15  C   UNL d   1     -10.520  11.647  15.852 -0.05 +0.01    +0.066 A 
DOCKED: ATOM     16  C   UNL d   1      -9.240  11.643  16.404 -0.08 -0.00    -0.021 A 
DOCKED: ATOM     17  C   UNL d   1      -8.862  10.305  16.516 -0.11 +0.00    +0.000 A 
DOCKED: ATOM     18  C   UNL d   1      -9.956   9.583  16.019 -0.13 +0.02    +0.070 A 
DOCKED: ATOM     19  C   UNL d   1      -8.477  12.905  16.720 -0.09 +0.01    +0.052 C 
DOCKED: ATOM     20  C   UNL d   1     -11.065   7.381  15.455 -0.15 +0.03    +0.066 A 
DOCKED: ATOM     21  C   UNL d   1     -11.105   5.990  15.448 -0.18 -0.01    -0.025 A 
DOCKED: ATOM     22  C   UNL d   1     -12.323   5.637  14.912 -0.16 -0.01    -0.021 A 
DOCKED: ATOM     23  C   UNL d   1     -12.977   6.832  14.594 -0.11 +0.04    +0.066 A 
DOCKED: ATOM     24  C   UNL d   1     -10.033   5.044  15.925 -0.24 +0.01    +0.051 C 
DOCKED: ATOM     25  N   UNL d   1     -14.391   9.319  13.759 -0.07 -0.23    -0.248 N 
DOCKED: ATOM     26  N   UNL d   1     -13.100  11.838  14.437 -0.06 -0.10    -0.248 N 
DOCKED: ATOM     27  N   UNL d   1     -10.922  10.415  15.552 -0.07 -0.08    -0.248 N 
DOCKED: ATOM     28  N   UNL d   1     -12.190   7.888  14.884 -0.10 -0.16    -0.248 N 
DOCKED: ATOM     29 FE   UNL d   1     -12.639   9.849  14.663 -0.02 +0.00    +0.000 Fe
DOCKED: ATOM     30  O   UNL d   1     -12.662  10.120  13.131 -0.73 +0.00    +0.000 OA
DOCKED: ATOM     31  O   UNL d   1     -11.353   9.560  13.805 -0.21 +0.00    +0.000 OA
DOCKED: ENDROOT
DOCKED: BRANCH   6  32
DOCKED: ATOM     32  C   UNL d   1     -16.909   6.977  12.343 -0.03 +0.03    +0.052 C 
DOCKED: BRANCH  32  33
DOCKED: ATOM     33  C   UNL d   1     -16.502   6.575  10.929 -0.06 +0.08    +0.115 C 
DOCKED: BRANCH  33  34
DOCKED: ATOM     34  C   UNL d   1     -15.298   5.665  10.913 -0.16 +0.16    +0.139 C 
DOCKED: ATOM     35  O   UNL d   1     -14.182   6.143  10.793 -0.02 -1.11    -0.650 OA
DOCKED: BRANCH  34  36
DOCKED: ATOM     36  O   UNL d   1     -15.429   4.325  11.001 -0.01 -0.97    -0.776 OA
DOCKED: ATOM     37  H   UNL d   1     -14.837   3.789  11.542 +0.04 +0.23    +0.167 HD
DOCKED: ENDBRANCH  34  36
DOCKED: ENDBRANCH  33  34
DOCKED: ENDBRANCH  32  33
DOCKED: ENDBRANCH   6  32
DOCKED: BRANCH  22  38
DOCKED: ATOM     38  C   UNL d   1     -12.799   4.229  14.663 -0.21 +0.02    +0.052 C 
DOCKED: BRANCH  38  39
DOCKED: ATOM     39  C   UNL d   1     -11.735   3.367  13.987 -0.40 +0.05    +0.115 C 
DOCKED: BRANCH  39  40
DOCKED: ATOM     40  C   UNL d   1     -11.728   3.530  12.487 -0.45 +0.14    +0.139 C 
DOCKED: ATOM     41  O   UNL d   1     -10.668   3.534  11.883 -0.60 -0.79    -0.650 OA
DOCKED: BRANCH  40  42
DOCKED: ATOM     42  O   UNL d   1     -12.878   3.622  11.792 -0.47 -1.35    -0.776 OA
DOCKED: ATOM     43  H   UNL d   1     -13.401   4.433  11.784 +0.05 +0.27    +0.167 HD
DOCKED: ENDBRANCH  40  42
DOCKED: ENDBRANCH  39  40
DOCKED: ENDBRANCH  38  39
DOCKED: ENDBRANCH  22  38
DOCKED: BRANCH  12  44
DOCKED: ATOM     44  C   UNL d   1     -12.912  15.570  15.027 -0.01 -0.00    +0.004 C 
DOCKED: ATOM     45  C   UNL d   1     -11.755  16.228  14.956 -0.02 -0.00    +0.012 C 
DOCKED: ENDBRANCH  12  44
DOCKED: BRANCH  17  46
DOCKED: ATOM     46  C   UNL d   1      -7.575   9.678  16.982 -0.14 +0.00    +0.004 C 
DOCKED: ATOM     47  C   UNL d   1      -6.701   8.954  16.271 -0.27 +0.00    +0.012 C 
DOCKED: ENDBRANCH  17  46
DOCKED: TORSDOF 10
DOCKED: TER
DOCKED: ENDMDL
________________________________________________________________________________


	BEGINNING GENETIC ALGORITHM DOCKING 20 of 100
Run: 20 Seed: 2036253106 1351695892 [ Run 20 of 100 GA/GALS ]
Beginning LAMARCKIAN GENETIC ALGORITHM (LGA), with a maximum of 25000000 energy evaluations.

Final-Value: -8.841


	FINAL GENETIC ALGORITHM DOCKED STATE
	_______________________________________________


Detailed state:  trans 1.445 14.537 -10.462 quatxyzw -0.377453 0.886267 0.247859 -0.103079 center 8.287 34.468 -0.670 ntor 10 99.9751 -6.9516 -48.6547 127.9825 -132.5649 -56.3448 -6.2724 43.4580 27.4576 165.5796
State:	  1.445  14.537 -10.462  -0.379  0.891  0.249 -168.167     99.98   -6.95  -48.65  127.98 -132.56  -56.34   -6.27   43.46   27.46  165.58

DOCKED: MODEL       20
DOCKED: USER    Run = 20
DOCKED: USER    DPF = D:/Protein_go_brrr/autodock/final/mut_Y35F/heme_O2/dock.dpf
DOCKED: USER  
DOCKED: USER    Estimated Free Energy of Binding    =   -5.40 kcal/mol  [=(1)+(2)+(3)-(4)]
DOCKED: USER    Estimated Inhibition Constant, Ki   =  110.42 uM (micromolar)  [Temperature = 298.15 K]
DOCKED: USER    
DOCKED: USER    (1) Final Intermolecular Energy     =   -8.38 kcal/mol
DOCKED: USER        vdW + Hbond + desolv Energy     =   -6.97 kcal/mol
DOCKED: USER        Electrostatic Energy            =   -1.41 kcal/mol
DOCKED: USER    (2) Final Total Internal Energy     =   -0.46 kcal/mol
DOCKED: USER    (3) Torsional Free Energy           =   +2.98 kcal/mol
DOCKED: USER    (4) Unbound System's Energy  [=(2)] =   -0.46 kcal/mol
DOCKED: USER    
DOCKED: USER    
DOCKED: USER    NEWDPF move heme_O2_opt.pdbqt
DOCKED: USER    NEWDPF about 8.287000 34.468000 -0.670000
DOCKED: USER    NEWDPF tran0 1.445125 14.536648 -10.461691
DOCKED: USER    NEWDPF quaternion0 -0.377453 0.886267 0.247859 -0.103079
DOCKED: USER    NEWDPF axisangle0 -0.379474 0.891014 0.249187 -168.167025
DOCKED: USER    NEWDPF quat0 -0.379474 0.891014 0.249187 -168.167025
DOCKED: USER    NEWDPF dihe0 99.98 -6.95 -48.65 127.98 -132.56 -56.34 -6.27 43.46 27.46 165.58 
DOCKED: USER  keepresnum = 1 
DOCKED: USER  
DOCKED: REMARK  10 active torsions:
DOCKED: REMARK  status: ('A' for Active; 'I' for Inactive)
DOCKED: REMARK    1  A    between atoms: C_6  and  C_10 
DOCKED: REMARK    2  A    between atoms: C_10  and  C_11 
DOCKED: REMARK    3  A    between atoms: C_11  and  C_12 
DOCKED: REMARK    4  A    between atoms: C_12  and  O_14 
DOCKED: REMARK    5  A    between atoms: C_17  and  C_20 
DOCKED: REMARK    6  A    between atoms: C_24  and  C_27 
DOCKED: REMARK    7  A    between atoms: C_31  and  C_34 
DOCKED: REMARK    8  A    between atoms: C_34  and  C_35 
DOCKED: REMARK    9  A    between atoms: C_35  and  C_36 
DOCKED: REMARK   10  A    between atoms: C_36  and  O_38 
DOCKED: USER                              x       y       z     vdW  Elec       q    Type
DOCKED: USER                           _______ _______ _______ _____ _____    ______ ____
DOCKED: ROOT
DOCKED: ATOM      1  C   UNL d   1       2.313  15.635  -8.868 -0.09 +0.01    +0.064 A 
DOCKED: ATOM      2  C   UNL d   1       3.445  15.211 -13.461 -0.13 +0.00    +0.064 A 
DOCKED: ATOM      3  C   UNL d   1      -0.200  12.161 -14.173 -0.14 -0.00    +0.064 C 
DOCKED: ATOM      4  C   UNL d   1      -1.663  12.960  -9.559 -0.19 -0.01    +0.064 A 
DOCKED: ATOM      5  C   UNL d   1       2.917  15.770 -10.059 -0.08 +0.01    +0.066 A 
DOCKED: ATOM      6  C   UNL d   1       4.049  16.561 -10.278 -0.11 -0.00    -0.021 A 
DOCKED: ATOM      7  C   UNL d   1       4.352  16.473 -11.617 -0.14 -0.00    -0.025 A 
DOCKED: ATOM      8  C   UNL d   1       3.425  15.593 -12.169 -0.18 +0.00    +0.066 A 
DOCKED: ATOM      9  C   UNL d   1       5.464  17.234 -12.304 -0.07 +0.00    +0.051 C 
DOCKED: ATOM     10  C   UNL d   1       2.514  14.274 -14.092 -0.13 -0.00    +0.066 A 
DOCKED: ATOM     11  C   UNL d   1       2.678  13.787 -15.394 -0.08 +0.00    -0.021 A 
DOCKED: ATOM     12  C   UNL d   1       1.647  12.892 -15.611 -0.09 -0.00    +0.000 A 
DOCKED: ATOM     13  C   UNL d   1       0.889  12.893 -14.408 -0.11 -0.00    +0.070 A 
DOCKED: ATOM     14  C   UNL d   1       3.787  14.139 -16.378 -0.04 -0.00    +0.052 C 
DOCKED: ATOM     15  C   UNL d   1      -1.015  12.160 -12.982 -0.10 -0.00    +0.066 A 
DOCKED: ATOM     16  C   UNL d   1      -2.234  11.494 -12.860 -0.12 +0.00    -0.021 A 
DOCKED: ATOM     17  C   UNL d   1      -2.671  11.708 -11.552 -0.15 -0.00    +0.000 A 
DOCKED: ATOM     18  C   UNL d   1      -1.671  12.498 -10.967 -0.12 -0.01    +0.070 A 
DOCKED: ATOM     19  C   UNL d   1      -2.893  10.767 -14.005 -0.06 -0.00    +0.052 C 
DOCKED: ATOM     20  C   UNL d   1      -0.742  13.754  -8.978 -0.22 -0.01    +0.066 A 
DOCKED: ATOM     21  C   UNL d   1      -0.779  14.142  -7.642 -0.26 +0.01    -0.025 A 
DOCKED: ATOM     22  C   UNL d   1       0.361  14.882  -7.420 -0.25 +0.01    -0.021 A 
DOCKED: ATOM     23  C   UNL d   1       1.044  14.934  -8.639 -0.18 -0.01    +0.066 A 
DOCKED: ATOM     24  C   UNL d   1      -1.848  13.825  -6.629 -0.25 -0.03    +0.051 C 
DOCKED: ATOM     25  N   UNL d   1       2.502  15.212 -11.223 -0.17 -0.01    -0.248 N 
DOCKED: ATOM     26  N   UNL d   1       1.421  13.741 -13.491 -0.11 +0.01    -0.248 N 
DOCKED: ATOM     27  N   UNL d   1      -0.712  12.824 -11.871 -0.09 +0.02    -0.248 N 
DOCKED: ATOM     28  N   UNL d   1       0.347  14.284  -9.594 -0.19 +0.03    -0.248 N 
DOCKED: ATOM     29 FE   UNL d   1       0.877  14.013 -11.529 -0.06 -0.00    +0.000 Fe
DOCKED: ATOM     30  O   UNL d   1       0.766  15.408 -12.210 -0.13 -0.00    +0.000 OA
DOCKED: ATOM     31  O   UNL d   1      -0.499  14.773 -11.519 -0.14 -0.00    +0.000 OA
DOCKED: ENDROOT
DOCKED: BRANCH   6  32
DOCKED: ATOM     32  C   UNL d   1       4.740  17.474  -9.299 -0.17 +0.01    +0.052 C 
DOCKED: BRANCH  32  33
DOCKED: ATOM     33  C   UNL d   1       6.122  16.970  -8.893 -0.20 +0.03    +0.115 C 
DOCKED: BRANCH  33  34
DOCKED: ATOM     34  C   UNL d   1       6.887  17.983  -8.078 -0.16 +0.05    +0.139 C 
DOCKED: ATOM     35  O   UNL d   1       6.604  18.151  -6.903 -0.38 -0.60    -0.650 OA
DOCKED: BRANCH  34  36
DOCKED: ATOM     36  O   UNL d   1       7.864  18.734  -8.628 +0.05 -0.11    -0.776 OA
DOCKED: ATOM     37  H   UNL d   1       7.715  19.647  -8.900 +0.02 +0.02    +0.167 HD
DOCKED: ENDBRANCH  34  36
DOCKED: ENDBRANCH  33  34
DOCKED: ENDBRANCH  32  33
DOCKED: ENDBRANCH   6  32
DOCKED: BRANCH  22  38
DOCKED: ATOM     38  C   UNL d   1       0.734  15.553  -6.123 -0.30 -0.02    +0.052 C 
DOCKED: BRANCH  38  39
DOCKED: ATOM     39  C   UNL d   1       0.247  16.999  -6.056 -0.12 -0.04    +0.115 C 
DOCKED: BRANCH  39  40
DOCKED: ATOM     40  C   UNL d   1       1.281  17.929  -5.472 -0.09 +0.04    +0.139 C 
DOCKED: ATOM     41  O   UNL d   1       2.106  18.454  -6.202 -0.32 -0.41    -0.650 OA
DOCKED: BRANCH  40  42
DOCKED: ATOM     42  O   UNL d   1       1.280  18.234  -4.160 -0.57 -0.34    -0.776 OA
DOCKED: ATOM     43  H   UNL d   1       0.587  17.916  -3.568 -0.04 -0.04    +0.167 HD
DOCKED: ENDBRANCH  40  42
DOCKED: ENDBRANCH  39  40
DOCKED: ENDBRANCH  38  39
DOCKED: ENDBRANCH  22  38
DOCKED: BRANCH  12  44
DOCKED: ATOM     44  C   UNL d   1       1.493  12.146 -16.920 -0.04 -0.00    +0.004 C 
DOCKED: ATOM     45  C   UNL d   1       1.371  10.832 -17.104 -0.05 -0.00    +0.012 C 
DOCKED: ENDBRANCH  12  44
DOCKED: BRANCH  17  46
DOCKED: ATOM     46  C   UNL d   1      -3.938  11.293 -10.853 -0.13 -0.00    +0.004 C 
DOCKED: ATOM     47  C   UNL d   1      -4.068  10.541  -9.752 -0.26 -0.00    +0.012 C 
DOCKED: ENDBRANCH  17  46
DOCKED: TORSDOF 10
DOCKED: TER
DOCKED: ENDMDL
________________________________________________________________________________


	BEGINNING GENETIC ALGORITHM DOCKING 21 of 100
Run: 21 Seed: 771095178 284385027 [ Run 21 of 100 GA/GALS ]
Beginning LAMARCKIAN GENETIC ALGORITHM (LGA), with a maximum of 25000000 energy evaluations.

Final-Value: -8.705


	FINAL GENETIC ALGORITHM DOCKED STATE
	_______________________________________________


Detailed state:  trans 2.874 7.674 -15.200 quatxyzw -0.637060 0.692913 -0.186175 -0.281718 center 8.287 34.468 -0.670 ntor 10 10.0489 -137.9123 -1.1024 121.0412 47.0895 171.7864 -165.6252 103.5789 179.8444 174.4805
State:	  2.874   7.674 -15.200  -0.664  0.722 -0.194 -147.274     10.05 -137.91   -1.10  121.04   47.09  171.79 -165.63  103.58  179.84  174.48

DOCKED: MODEL       21
DOCKED: USER    Run = 21
DOCKED: USER    DPF = D:/Protein_go_brrr/autodock/final/mut_Y35F/heme_O2/dock.dpf
DOCKED: USER  
DOCKED: USER    Estimated Free Energy of Binding    =   -3.29 kcal/mol  [=(1)+(2)+(3)-(4)]
DOCKED: USER    Estimated Inhibition Constant, Ki   =    3.90 mM (millimolar)  [Temperature = 298.15 K]
DOCKED: USER    
DOCKED: USER    (1) Final Intermolecular Energy     =   -6.27 kcal/mol
DOCKED: USER        vdW + Hbond + desolv Energy     =   -6.44 kcal/mol
DOCKED: USER        Electrostatic Energy            =   +0.17 kcal/mol
DOCKED: USER    (2) Final Total Internal Energy     =   -2.44 kcal/mol
DOCKED: USER    (3) Torsional Free Energy           =   +2.98 kcal/mol
DOCKED: USER    (4) Unbound System's Energy  [=(2)] =   -2.44 kcal/mol
DOCKED: USER    
DOCKED: USER    
DOCKED: USER    NEWDPF move heme_O2_opt.pdbqt
DOCKED: USER    NEWDPF about 8.287000 34.468000 -0.670000
DOCKED: USER    NEWDPF tran0 2.874433 7.673670 -15.200158
DOCKED: USER    NEWDPF quaternion0 -0.637060 0.692913 -0.186175 -0.281718
DOCKED: USER    NEWDPF axisangle0 -0.663952 0.722163 -0.194034 -147.274416
DOCKED: USER    NEWDPF quat0 -0.663952 0.722163 -0.194034 -147.274416
DOCKED: USER    NEWDPF dihe0 10.05 -137.91 -1.10 121.04 47.09 171.79 -165.63 103.58 179.84 174.48 
DOCKED: USER  keepresnum = 1 
DOCKED: USER  
DOCKED: REMARK  10 active torsions:
DOCKED: REMARK  status: ('A' for Active; 'I' for Inactive)
DOCKED: REMARK    1  A    between atoms: C_6  and  C_10 
DOCKED: REMARK    2  A    between atoms: C_10  and  C_11 
DOCKED: REMARK    3  A    between atoms: C_11  and  C_12 
DOCKED: REMARK    4  A    between atoms: C_12  and  O_14 
DOCKED: REMARK    5  A    between atoms: C_17  and  C_20 
DOCKED: REMARK    6  A    between atoms: C_24  and  C_27 
DOCKED: REMARK    7  A    between atoms: C_31  and  C_34 
DOCKED: REMARK    8  A    between atoms: C_34  and  C_35 
DOCKED: REMARK    9  A    between atoms: C_35  and  C_36 
DOCKED: REMARK   10  A    between atoms: C_36  and  O_38 
DOCKED: USER                              x       y       z     vdW  Elec       q    Type
DOCKED: USER                           _______ _______ _______ _____ _____    ______ ____
DOCKED: ROOT
DOCKED: ATOM      1  C   UNL d   1       1.959   9.512 -14.668 -0.24 -0.01    +0.064 A 
DOCKED: ATOM      2  C   UNL d   1       6.373   8.401 -16.027 -0.15 -0.01    +0.064 A 
DOCKED: ATOM      3  C   UNL d   1       5.200   3.752 -16.354 -0.24 -0.00    +0.064 C 
DOCKED: ATOM      4  C   UNL d   1       0.535   4.946 -15.420 -0.14 -0.00    +0.064 A 
DOCKED: ATOM      5  C   UNL d   1       3.255   9.589 -15.012 -0.28 -0.01    +0.066 A 
DOCKED: ATOM      6  C   UNL d   1       3.992  10.776 -15.023 -0.26 +0.00    -0.021 A 
DOCKED: ATOM      7  C   UNL d   1       5.259  10.463 -15.458 -0.20 +0.00    -0.025 A 
DOCKED: ATOM      8  C   UNL d   1       5.273   9.085 -15.655 -0.18 -0.01    +0.066 A 
DOCKED: ATOM      9  C   UNL d   1       6.367  11.466 -15.691 -0.15 -0.00    +0.051 C 
DOCKED: ATOM     10  C   UNL d   1       6.455   6.953 -16.227 -0.24 -0.01    +0.066 A 
DOCKED: ATOM     11  C   UNL d   1       7.658   6.275 -16.453 -0.20 +0.00    -0.021 A 
DOCKED: ATOM     12  C   UNL d   1       7.343   4.931 -16.532 -0.22 -0.00    +0.000 A 
DOCKED: ATOM     13  C   UNL d   1       5.933   4.865 -16.358 -0.25 -0.01    +0.070 A 
DOCKED: ATOM     14  C   UNL d   1       9.052   6.881 -16.561 -0.18 -0.01    +0.052 C 
DOCKED: ATOM     15  C   UNL d   1       3.768   3.646 -16.217 -0.18 -0.00    +0.066 A 
DOCKED: ATOM     16  C   UNL d   1       3.043   2.467 -16.386 -0.13 +0.00    -0.021 A 
DOCKED: ATOM     17  C   UNL d   1       1.709   2.783 -16.125 -0.12 -0.00    +0.000 A 
DOCKED: ATOM     18  C   UNL d   1       1.722   4.149 -15.811 +0.06 -0.00    +0.070 A 
DOCKED: ATOM     19  C   UNL d   1       3.672   1.170 -16.830 -0.08 +0.00    +0.052 C 
DOCKED: ATOM     20  C   UNL d   1       0.504   6.266 -15.154 -0.21 -0.01    +0.066 A 
DOCKED: ATOM     21  C   UNL d   1      -0.641   6.960 -14.774 -0.18 +0.00    -0.025 A 
DOCKED: ATOM     22  C   UNL d   1      -0.249   8.256 -14.529 -0.21 +0.00    -0.021 A 
DOCKED: ATOM     23  C   UNL d   1       1.124   8.311 -14.787 -0.27 -0.01    +0.066 A 
DOCKED: ATOM     24  C   UNL d   1      -2.040   6.413 -14.653 -0.12 -0.00    +0.051 C 
DOCKED: ATOM     25  N   UNL d   1       4.021   8.557 -15.443 -0.17 +0.06    -0.248 N 
DOCKED: ATOM     26  N   UNL d   1       5.400   6.100 -16.178 -0.19 +0.05    -0.248 N 
DOCKED: ATOM     27  N   UNL d   1       2.967   4.672 -15.945 -0.12 +0.02    -0.248 N 
DOCKED: ATOM     28  N   UNL d   1       1.569   7.110 -15.211 -0.17 +0.05    -0.248 N 
DOCKED: ATOM     29 FE   UNL d   1       3.470   6.606 -15.691 -0.06 -0.00    +0.000 Fe
DOCKED: ATOM     30  O   UNL d   1       3.791   7.343 -17.024 -0.14 -0.00    +0.000 OA
DOCKED: ATOM     31  O   UNL d   1       2.577   6.342 -16.959 -0.13 -0.00    +0.000 OA
DOCKED: ENDROOT
DOCKED: BRANCH   6  32
DOCKED: ATOM     32  C   UNL d   1       3.494  12.175 -14.768 -0.21 -0.00    +0.052 C 
DOCKED: BRANCH  32  33
DOCKED: ATOM     33  C   UNL d   1       3.168  12.932 -16.052 -0.07 -0.00    +0.115 C 
DOCKED: BRANCH  33  34
DOCKED: ATOM     34  C   UNL d   1       3.137  12.028 -17.259 -0.03 -0.01    +0.139 C 
DOCKED: ATOM     35  O   UNL d   1       4.072  12.037 -18.044 +0.01 +0.03    -0.650 OA
DOCKED: BRANCH  34  36
DOCKED: ATOM     36  O   UNL d   1       2.081  11.226 -17.510 +0.02 +0.04    -0.776 OA
DOCKED: ATOM     37  H   UNL d   1       1.254  11.302 -17.020 +0.02 -0.01    +0.167 HD
DOCKED: ENDBRANCH  34  36
DOCKED: ENDBRANCH  33  34
DOCKED: ENDBRANCH  32  33
DOCKED: ENDBRANCH   6  32
DOCKED: BRANCH  22  38
DOCKED: ATOM     38  C   UNL d   1      -1.160   9.389 -14.131 -0.19 -0.00    +0.052 C 
DOCKED: BRANCH  38  39
DOCKED: ATOM     39  C   UNL d   1      -1.836  10.042 -15.335 -0.05 -0.00    +0.115 C 
DOCKED: BRANCH  39  40
DOCKED: ATOM     40  C   UNL d   1      -0.912  10.970 -16.082 -0.04 -0.01    +0.139 C 
DOCKED: ATOM     41  O   UNL d   1      -0.195  11.740 -15.463 +0.01 +0.03    -0.650 OA
DOCKED: BRANCH  40  42
DOCKED: ATOM     42  O   UNL d   1      -0.825  10.931 -17.426 +0.01 +0.03    -0.776 OA
DOCKED: ATOM     43  H   UNL d   1       0.027  10.954 -17.877 +0.01 -0.01    +0.167 HD
DOCKED: ENDBRANCH  40  42
DOCKED: ENDBRANCH  39  40
DOCKED: ENDBRANCH  38  39
DOCKED: ENDBRANCH  22  38
DOCKED: BRANCH  12  44
DOCKED: ATOM     44  C   UNL d   1       8.399   3.870 -16.765 -0.22 -0.00    +0.004 C 
DOCKED: ATOM     45  C   UNL d   1       8.244   2.547 -16.761 -0.18 -0.00    +0.012 C 
DOCKED: ENDBRANCH  12  44
DOCKED: BRANCH  17  46
DOCKED: ATOM     46  C   UNL d   1       0.461   1.944 -16.203 -0.08 +0.00    +0.004 C 
DOCKED: ATOM     47  C   UNL d   1      -0.345   1.565 -15.203 -0.09 +0.00    +0.012 C 
DOCKED: ENDBRANCH  17  46
DOCKED: TORSDOF 10
DOCKED: TER
DOCKED: ENDMDL
________________________________________________________________________________


	BEGINNING GENETIC ALGORITHM DOCKING 22 of 100
Run: 22 Seed: 292756958 848527763 [ Run 22 of 100 GA/GALS ]
Beginning LAMARCKIAN GENETIC ALGORITHM (LGA), with a maximum of 25000000 energy evaluations.

Final-Value: -12.071


	FINAL GENETIC ALGORITHM DOCKED STATE
	_______________________________________________


Detailed state:  trans 11.136 11.350 7.059 quatxyzw 0.662282 0.635407 0.375716 -0.128366 center 8.287 34.468 -0.670 ntor 10 0.7167 28.3285 -75.3005 -124.8250 -110.5563 -17.1355 -37.7827 -44.5952 -127.3884 -36.2399
State:	 11.136  11.350   7.059   0.668  0.641  0.379 -165.250      0.72   28.33  -75.30 -124.82 -110.56  -17.14  -37.78  -44.60 -127.39  -36.24

DOCKED: MODEL       22
DOCKED: USER    Run = 22
DOCKED: USER    DPF = D:/Protein_go_brrr/autodock/final/mut_Y35F/heme_O2/dock.dpf
DOCKED: USER  
DOCKED: USER    Estimated Free Energy of Binding    =   -7.75 kcal/mol  [=(1)+(2)+(3)-(4)]
DOCKED: USER    Estimated Inhibition Constant, Ki   =    2.07 uM (micromolar)  [Temperature = 298.15 K]
DOCKED: USER    
DOCKED: USER    (1) Final Intermolecular Energy     =  -10.74 kcal/mol
DOCKED: USER        vdW + Hbond + desolv Energy     =   -7.55 kcal/mol
DOCKED: USER        Electrostatic Energy            =   -3.18 kcal/mol
DOCKED: USER    (2) Final Total Internal Energy     =   -1.34 kcal/mol
DOCKED: USER    (3) Torsional Free Energy           =   +2.98 kcal/mol
DOCKED: USER    (4) Unbound System's Energy  [=(2)] =   -1.34 kcal/mol
DOCKED: USER    
DOCKED: USER    
DOCKED: USER    NEWDPF move heme_O2_opt.pdbqt
DOCKED: USER    NEWDPF about 8.287000 34.468000 -0.670000
DOCKED: USER    NEWDPF tran0 11.136490 11.349673 7.059176
DOCKED: USER    NEWDPF quaternion0 0.662282 0.635407 0.375716 -0.128366
DOCKED: USER    NEWDPF axisangle0 0.667807 0.640707 0.378850 -165.249646
DOCKED: USER    NEWDPF quat0 0.667807 0.640707 0.378850 -165.249646
DOCKED: USER    NEWDPF dihe0 0.72 28.33 -75.30 -124.82 -110.56 -17.14 -37.78 -44.60 -127.39 -36.24 
DOCKED: USER  keepresnum = 1 
DOCKED: USER  
DOCKED: REMARK  10 active torsions:
DOCKED: REMARK  status: ('A' for Active; 'I' for Inactive)
DOCKED: REMARK    1  A    between atoms: C_6  and  C_10 
DOCKED: REMARK    2  A    between atoms: C_10  and  C_11 
DOCKED: REMARK    3  A    between atoms: C_11  and  C_12 
DOCKED: REMARK    4  A    between atoms: C_12  and  O_14 
DOCKED: REMARK    5  A    between atoms: C_17  and  C_20 
DOCKED: REMARK    6  A    between atoms: C_24  and  C_27 
DOCKED: REMARK    7  A    between atoms: C_31  and  C_34 
DOCKED: REMARK    8  A    between atoms: C_34  and  C_35 
DOCKED: REMARK    9  A    between atoms: C_35  and  C_36 
DOCKED: REMARK   10  A    between atoms: C_36  and  O_38 
DOCKED: USER                              x       y       z     vdW  Elec       q    Type
DOCKED: USER                           _______ _______ _______ _____ _____    ______ ____
DOCKED: ROOT
DOCKED: ATOM      1  C   UNL d   1      11.224   9.253   7.371 -0.12 +0.02    +0.064 A 
DOCKED: ATOM      2  C   UNL d   1      11.536  11.930   3.460 -0.08 -0.01    +0.064 A 
DOCKED: ATOM      3  C   UNL d   1      10.905  15.936   6.040 -0.21 -0.01    +0.064 C 
DOCKED: ATOM      4  C   UNL d   1      11.061  13.229  10.129 -0.21 +0.02    +0.064 A 
DOCKED: ATOM      5  C   UNL d   1      11.363   9.655   6.097 -0.13 +0.01    +0.066 A 
DOCKED: ATOM      6  C   UNL d   1      11.543   8.785   5.018 -0.21 -0.00    -0.021 A 
DOCKED: ATOM      7  C   UNL d   1      11.677   9.562   3.890 -0.29 +0.00    -0.025 A 
DOCKED: ATOM      8  C   UNL d   1      11.526  10.882   4.306 -0.21 -0.00    +0.066 A 
DOCKED: ATOM      9  C   UNL d   1      11.965   9.031   2.503 -0.40 -0.01    +0.051 C 
DOCKED: ATOM     10  C   UNL d   1      11.361  13.335   3.834 -0.20 -0.01    +0.066 A 
DOCKED: ATOM     11  C   UNL d   1      11.216  14.367   2.900 -0.25 +0.00    -0.021 A 
DOCKED: ATOM     12  C   UNL d   1      11.015  15.527   3.624 -0.19 -0.00    +0.000 A 
DOCKED: ATOM     13  C   UNL d   1      11.062  15.130   4.990 -0.16 -0.01    +0.070 A 
DOCKED: ATOM     14  C   UNL d   1      11.241  14.247   1.381 -0.33 -0.02    +0.052 C 
DOCKED: ATOM     15  C   UNL d   1      10.980  15.579   7.436 -0.19 -0.01    +0.066 A 
DOCKED: ATOM     16  C   UNL d   1      10.972  16.496   8.488 -0.19 +0.00    -0.021 A 
DOCKED: ATOM     17  C   UNL d   1      11.016  15.747   9.664 -0.22 +0.00    +0.000 A 
DOCKED: ATOM     18  C   UNL d   1      11.047  14.412   9.236 -0.23 +0.01    +0.070 A 
DOCKED: ATOM     19  C   UNL d   1      10.978  17.989   8.277 -0.15 -0.01    +0.052 C 
DOCKED: ATOM     20  C   UNL d   1      11.134  11.938   9.752 -0.18 +0.02    +0.066 A 
DOCKED: ATOM     21  C   UNL d   1      11.125  10.865  10.639 -0.14 -0.01    -0.025 A 
DOCKED: ATOM     22  C   UNL d   1      11.144   9.723   9.870 -0.14 -0.01    -0.021 A 
DOCKED: ATOM     23  C   UNL d   1      11.182  10.144   8.537 -0.14 +0.02    +0.066 A 
DOCKED: ATOM     24  C   UNL d   1      11.104  10.926  12.145 -0.14 +0.02    +0.051 C 
DOCKED: ATOM     25  N   UNL d   1      11.398  10.942   5.674 -0.05 -0.01    -0.248 N 
DOCKED: ATOM     26  N   UNL d   1      11.277  13.796   5.108 +0.02 +0.02    -0.248 N 
DOCKED: ATOM     27  N   UNL d   1      11.101  14.332   7.882 -0.04 -0.01    -0.248 N 
DOCKED: ATOM     28  N   UNL d   1      11.221  11.490   8.472 -0.10 -0.04    -0.248 N 
DOCKED: ATOM     29 FE   UNL d   1      11.249  12.637   6.804 -0.04 +0.00    +0.000 Fe
DOCKED: ATOM     30  O   UNL d   1      12.651  12.433   6.159 -0.11 +0.00    +0.000 OA
DOCKED: ATOM     31  O   UNL d   1      12.541  12.979   7.633 -0.11 +0.00    +0.000 OA
DOCKED: ENDROOT
DOCKED: BRANCH   6  32
DOCKED: ATOM     32  C   UNL d   1      11.721   7.290   5.057 -0.15 +0.01    +0.052 C 
DOCKED: BRANCH  32  33
DOCKED: ATOM     33  C   UNL d   1      12.673   6.835   6.159 -0.16 +0.04    +0.115 C 
DOCKED: BRANCH  33  34
DOCKED: ATOM     34  C   UNL d   1      12.198   5.580   6.848 -0.14 +0.12    +0.139 C 
DOCKED: ATOM     35  O   UNL d   1      12.663   4.500   6.521 -0.48 -0.54    -0.650 OA
DOCKED: BRANCH  34  36
DOCKED: ATOM     36  O   UNL d   1      11.247   5.619   7.804 -0.35 -1.36    -0.776 OA
DOCKED: ATOM     37  H   UNL d   1      10.826   6.444   8.072 +0.03 +0.21    +0.167 HD
DOCKED: ENDBRANCH  34  36
DOCKED: ENDBRANCH  33  34
DOCKED: ENDBRANCH  32  33
DOCKED: ENDBRANCH   6  32
DOCKED: BRANCH  22  38
DOCKED: ATOM     38  C   UNL d   1      11.188   8.311  10.395 -0.11 +0.03    +0.052 C 
DOCKED: BRANCH  38  39
DOCKED: ATOM     39  C   UNL d   1       9.920   7.934  11.157 -0.11 +0.07    +0.115 C 
DOCKED: BRANCH  39  40
DOCKED: ATOM     40  C   UNL d   1       9.393   6.576  10.763 +0.13 +0.17    +0.139 C 
DOCKED: ATOM     41  O   UNL d   1       9.163   5.742  11.623 -0.44 -0.92    -0.650 OA
DOCKED: BRANCH  40  42
DOCKED: ATOM     42  O   UNL d   1       9.121   6.283   9.476 +0.05 -1.20    -0.776 OA
DOCKED: ATOM     43  H   UNL d   1       9.619   6.680   8.752 +0.04 +0.21    +0.167 HD
DOCKED: ENDBRANCH  40  42
DOCKED: ENDBRANCH  39  40
DOCKED: ENDBRANCH  38  39
DOCKED: ENDBRANCH  22  38
DOCKED: BRANCH  12  44
DOCKED: ATOM     44  C   UNL d   1      10.807  16.869   2.953 -0.16 -0.00    +0.004 C 
DOCKED: ATOM     45  C   UNL d   1       9.658  17.509   2.742 -0.22 -0.00    +0.012 C 
DOCKED: ENDBRANCH  12  44
DOCKED: BRANCH  17  46
DOCKED: ATOM     46  C   UNL d   1      11.088  16.174  11.105 -0.18 +0.00    +0.004 C 
DOCKED: ATOM     47  C   UNL d   1      11.916  15.732  12.060 -0.14 +0.01    +0.012 C 
DOCKED: ENDBRANCH  17  46
DOCKED: TORSDOF 10
DOCKED: TER
DOCKED: ENDMDL
________________________________________________________________________________


	BEGINNING GENETIC ALGORITHM DOCKING 23 of 100
Run: 23 Seed: 843558049 1898478457 [ Run 23 of 100 GA/GALS ]
Beginning LAMARCKIAN GENETIC ALGORITHM (LGA), with a maximum of 25000000 energy evaluations.

Final-Value: -9.794


	FINAL GENETIC ALGORITHM DOCKED STATE
	_______________________________________________


Detailed state:  trans 2.048 -16.908 -7.738 quatxyzw -0.938902 -0.234357 -0.111925 0.225862 center 8.287 34.468 -0.670 ntor 10 34.2771 -69.5727 52.1552 147.1236 87.1973 -59.6133 65.0124 -37.1550 161.9702 155.8108
State:	  2.048 -16.908  -7.738  -0.964 -0.241 -0.115 153.893     34.28  -69.57   52.16  147.12   87.20  -59.61   65.01  -37.16  161.97  155.81

DOCKED: MODEL       23
DOCKED: USER    Run = 23
DOCKED: USER    DPF = D:/Protein_go_brrr/autodock/final/mut_Y35F/heme_O2/dock.dpf
DOCKED: USER  
DOCKED: USER    Estimated Free Energy of Binding    =   -6.20 kcal/mol  [=(1)+(2)+(3)-(4)]
DOCKED: USER    Estimated Inhibition Constant, Ki   =   28.30 uM (micromolar)  [Temperature = 298.15 K]
DOCKED: USER    
DOCKED: USER    (1) Final Intermolecular Energy     =   -9.19 kcal/mol
DOCKED: USER        vdW + Hbond + desolv Energy     =   -8.43 kcal/mol
DOCKED: USER        Electrostatic Energy            =   -0.75 kcal/mol
DOCKED: USER    (2) Final Total Internal Energy     =   -0.61 kcal/mol
DOCKED: USER    (3) Torsional Free Energy           =   +2.98 kcal/mol
DOCKED: USER    (4) Unbound System's Energy  [=(2)] =   -0.61 kcal/mol
DOCKED: USER    
DOCKED: USER    
DOCKED: USER    NEWDPF move heme_O2_opt.pdbqt
DOCKED: USER    NEWDPF about 8.287000 34.468000 -0.670000
DOCKED: USER    NEWDPF tran0 2.047800 -16.907885 -7.738040
DOCKED: USER    NEWDPF quaternion0 -0.938902 -0.234357 -0.111925 0.225862
DOCKED: USER    NEWDPF axisangle0 -0.963807 -0.240573 -0.114894 153.892879
DOCKED: USER    NEWDPF quat0 -0.963807 -0.240573 -0.114894 153.892879
DOCKED: USER    NEWDPF dihe0 34.28 -69.57 52.16 147.12 87.20 -59.61 65.01 -37.16 161.97 155.81 
DOCKED: USER  keepresnum = 1 
DOCKED: USER  
DOCKED: REMARK  10 active torsions:
DOCKED: REMARK  status: ('A' for Active; 'I' for Inactive)
DOCKED: REMARK    1  A    between atoms: C_6  and  C_10 
DOCKED: REMARK    2  A    between atoms: C_10  and  C_11 
DOCKED: REMARK    3  A    between atoms: C_11  and  C_12 
DOCKED: REMARK    4  A    between atoms: C_12  and  O_14 
DOCKED: REMARK    5  A    between atoms: C_17  and  C_20 
DOCKED: REMARK    6  A    between atoms: C_24  and  C_27 
DOCKED: REMARK    7  A    between atoms: C_31  and  C_34 
DOCKED: REMARK    8  A    between atoms: C_34  and  C_35 
DOCKED: REMARK    9  A    between atoms: C_35  and  C_36 
DOCKED: REMARK   10  A    between atoms: C_36  and  O_38 
DOCKED: USER                              x       y       z     vdW  Elec       q    Type
DOCKED: USER                           _______ _______ _______ _____ _____    ______ ____
DOCKED: ROOT
DOCKED: ATOM      1  C   UNL d   1       0.412 -18.002  -6.948 -0.27 -0.05    +0.064 A 
DOCKED: ATOM      2  C   UNL d   1       1.538 -16.655 -11.361 -0.19 -0.01    +0.064 A 
DOCKED: ATOM      3  C   UNL d   1       5.501 -14.448  -9.775 -0.25 -0.02    +0.064 C 
DOCKED: ATOM      4  C   UNL d   1       4.605 -16.236  -5.295 -0.19 -0.02    +0.064 A 
DOCKED: ATOM      5  C   UNL d   1       0.395 -17.817  -8.278 -0.26 -0.03    +0.066 A 
DOCKED: ATOM      6  C   UNL d   1      -0.616 -18.287  -9.121 -0.31 +0.01    -0.021 A 
DOCKED: ATOM      7  C   UNL d   1      -0.269 -17.935 -10.404 -0.27 +0.00    -0.025 A 
DOCKED: ATOM      8  C   UNL d   1       0.920 -17.218 -10.304 -0.25 -0.02    +0.066 A 
DOCKED: ATOM      9  C   UNL d   1      -1.048 -18.310 -11.646 -0.27 +0.01    +0.051 C 
DOCKED: ATOM     10  C   UNL d   1       2.774 -15.872 -11.315 -0.18 -0.02    +0.066 A 
DOCKED: ATOM     11  C   UNL d   1       3.283 -15.173 -12.415 -0.15 +0.01    -0.021 A 
DOCKED: ATOM     12  C   UNL d   1       4.416 -14.516 -11.973 -0.20 -0.00    +0.000 A 
DOCKED: ATOM     13  C   UNL d   1       4.544 -14.869 -10.601 -0.21 -0.02    +0.070 A 
DOCKED: ATOM     14  C   UNL d   1       2.698 -15.112 -13.821 -0.10 -0.01    +0.052 C 
DOCKED: ATOM     15  C   UNL d   1       5.685 -14.810  -8.390 -0.21 -0.03    +0.066 A 
DOCKED: ATOM     16  C   UNL d   1       6.799 -14.467  -7.624 -0.19 +0.01    -0.021 A 
DOCKED: ATOM     17  C   UNL d   1       6.566 -14.967  -6.343 -0.20 -0.00    +0.000 A 
DOCKED: ATOM     18  C   UNL d   1       5.310 -15.584  -6.424 -0.20 -0.03    +0.070 A 
DOCKED: ATOM     19  C   UNL d   1       7.997 -13.748  -8.192 -0.18 -0.04    +0.052 C 
DOCKED: ATOM     20  C   UNL d   1       3.421 -16.875  -5.348 -0.22 -0.02    +0.066 A 
DOCKED: ATOM     21  C   UNL d   1       2.797 -17.455  -4.246 -0.22 +0.01    -0.025 A 
DOCKED: ATOM     22  C   UNL d   1       1.588 -17.939  -4.693 -0.22 +0.01    -0.021 A 
DOCKED: ATOM     23  C   UNL d   1       1.526 -17.652  -6.060 -0.30 -0.04    +0.066 A 
DOCKED: ATOM     24  C   UNL d   1       3.329 -17.545  -2.840 -0.27 -0.01    +0.051 C 
DOCKED: ATOM     25  N   UNL d   1       1.363 -17.202  -9.002 -0.05 +0.11    -0.248 N 
DOCKED: ATOM     26  N   UNL d   1       3.543 -15.698 -10.210 -0.14 +0.10    -0.248 N 
DOCKED: ATOM     27  N   UNL d   1       4.825 -15.545  -7.691 -0.15 +0.10    -0.248 N 
DOCKED: ATOM     28  N   UNL d   1       2.662 -17.045  -6.463 -0.05 +0.12    -0.248 N 
DOCKED: ATOM     29 FE   UNL d   1       3.102 -16.376  -8.322 -0.06 -0.00    +0.000 Fe
DOCKED: ATOM     30  O   UNL d   1       3.310 -17.643  -9.202 -0.14 -0.00    +0.000 OA
DOCKED: ATOM     31  O   UNL d   1       4.205 -17.424  -7.924 -0.14 -0.00    +0.000 OA
DOCKED: ENDROOT
DOCKED: BRANCH   6  32
DOCKED: ATOM     32  C   UNL d   1      -1.794 -19.152  -8.756 -0.34 -0.02    +0.052 C 
DOCKED: BRANCH  32  33
DOCKED: ATOM     33  C   UNL d   1      -1.738 -20.532  -9.405 -0.19 -0.02    +0.115 C 
DOCKED: BRANCH  33  34
DOCKED: ATOM     34  C   UNL d   1      -2.891 -20.772 -10.348 -0.19 +0.02    +0.139 C 
DOCKED: ATOM     35  O   UNL d   1      -4.032 -20.797  -9.913 -0.05 -0.09    -0.650 OA
DOCKED: BRANCH  34  36
DOCKED: ATOM     36  O   UNL d   1      -2.690 -20.988 -11.664 +0.00 -0.31    -0.776 OA
DOCKED: ATOM     37  H   UNL d   1      -1.919 -21.467 -11.991 +0.03 +0.06    +0.167 HD
DOCKED: ENDBRANCH  34  36
DOCKED: ENDBRANCH  33  34
DOCKED: ENDBRANCH  32  33
DOCKED: ENDBRANCH   6  32
DOCKED: BRANCH  22  38
DOCKED: ATOM     38  C   UNL d   1       0.582 -18.692  -3.861 -0.27 -0.03    +0.052 C 
DOCKED: BRANCH  38  39
DOCKED: ATOM     39  C   UNL d   1       0.621 -20.197  -4.122 -0.16 -0.06    +0.115 C 
DOCKED: BRANCH  39  40
DOCKED: ATOM     40  C   UNL d   1       0.423 -21.005  -2.864 -0.18 +0.00    +0.139 C 
DOCKED: ATOM     41  O   UNL d   1      -0.707 -21.250  -2.473 -0.35 -0.38    -0.650 OA
DOCKED: BRANCH  40  42
DOCKED: ATOM     42  O   UNL d   1       1.473 -21.507  -2.186 +0.02 -0.02    -0.776 OA
DOCKED: ATOM     43  H   UNL d   1       2.031 -22.199  -2.562 +0.02 -0.01    +0.167 HD
DOCKED: ENDBRANCH  40  42
DOCKED: ENDBRANCH  39  40
DOCKED: ENDBRANCH  38  39
DOCKED: ENDBRANCH  22  38
DOCKED: BRANCH  12  44
DOCKED: ATOM     44  C   UNL d   1       5.246 -13.639 -12.888 -0.15 -0.00    +0.004 C 
DOCKED: ATOM     45  C   UNL d   1       6.569 -13.641 -13.045 -0.12 -0.00    +0.012 C 
DOCKED: ENDBRANCH  12  44
DOCKED: BRANCH  17  46
DOCKED: ATOM     46  C   UNL d   1       7.428 -14.960  -5.108 -0.22 -0.00    +0.004 C 
DOCKED: ATOM     47  C   UNL d   1       7.054 -14.758  -3.838 -0.26 -0.01    +0.012 C 
DOCKED: ENDBRANCH  17  46
DOCKED: TORSDOF 10
DOCKED: TER
DOCKED: ENDMDL
________________________________________________________________________________


	BEGINNING GENETIC ALGORITHM DOCKING 24 of 100
Run: 24 Seed: 1434083465 1001791776 [ Run 24 of 100 GA/GALS ]
Beginning LAMARCKIAN GENETIC ALGORITHM (LGA), with a maximum of 25000000 energy evaluations.

Final-Value: -10.576


	FINAL GENETIC ALGORITHM DOCKED STATE
	_______________________________________________


Detailed state:  trans 15.709 7.296 4.777 quatxyzw 0.401738 0.202480 0.484550 -0.750213 center 8.287 34.468 -0.670 ntor 10 -138.4649 124.5050 -57.2688 122.5298 30.8942 -58.5437 -98.9716 132.7737 177.5496 -169.9129
State:	 15.709   7.296   4.777   0.608  0.306  0.733 -82.782   -138.46  124.50  -57.27  122.53   30.89  -58.54  -98.97  132.77  177.55 -169.91

DOCKED: MODEL       24
DOCKED: USER    Run = 24
DOCKED: USER    DPF = D:/Protein_go_brrr/autodock/final/mut_Y35F/heme_O2/dock.dpf
DOCKED: USER  
DOCKED: USER    Estimated Free Energy of Binding    =   -5.43 kcal/mol  [=(1)+(2)+(3)-(4)]
DOCKED: USER    Estimated Inhibition Constant, Ki   =  105.11 uM (micromolar)  [Temperature = 298.15 K]
DOCKED: USER    
DOCKED: USER    (1) Final Intermolecular Energy     =   -8.41 kcal/mol
DOCKED: USER        vdW + Hbond + desolv Energy     =   -6.20 kcal/mol
DOCKED: USER        Electrostatic Energy            =   -2.21 kcal/mol
DOCKED: USER    (2) Final Total Internal Energy     =   -2.17 kcal/mol
DOCKED: USER    (3) Torsional Free Energy           =   +2.98 kcal/mol
DOCKED: USER    (4) Unbound System's Energy  [=(2)] =   -2.17 kcal/mol
DOCKED: USER    
DOCKED: USER    
DOCKED: USER    NEWDPF move heme_O2_opt.pdbqt
DOCKED: USER    NEWDPF about 8.287000 34.468000 -0.670000
DOCKED: USER    NEWDPF tran0 15.709239 7.296196 4.776730
DOCKED: USER    NEWDPF quaternion0 0.401738 0.202480 0.484550 -0.750213
DOCKED: USER    NEWDPF axisangle0 0.607592 0.306233 0.732839 -82.782342
DOCKED: USER    NEWDPF quat0 0.607592 0.306233 0.732839 -82.782342
DOCKED: USER    NEWDPF dihe0 -138.46 124.50 -57.27 122.53 30.89 -58.54 -98.97 132.77 177.55 -169.91 
DOCKED: USER  keepresnum = 1 
DOCKED: USER  
DOCKED: REMARK  10 active torsions:
DOCKED: REMARK  status: ('A' for Active; 'I' for Inactive)
DOCKED: REMARK    1  A    between atoms: C_6  and  C_10 
DOCKED: REMARK    2  A    between atoms: C_10  and  C_11 
DOCKED: REMARK    3  A    between atoms: C_11  and  C_12 
DOCKED: REMARK    4  A    between atoms: C_12  and  O_14 
DOCKED: REMARK    5  A    between atoms: C_17  and  C_20 
DOCKED: REMARK    6  A    between atoms: C_24  and  C_27 
DOCKED: REMARK    7  A    between atoms: C_31  and  C_34 
DOCKED: REMARK    8  A    between atoms: C_34  and  C_35 
DOCKED: REMARK    9  A    between atoms: C_35  and  C_36 
DOCKED: REMARK   10  A    between atoms: C_36  and  O_38 
DOCKED: USER                              x       y       z     vdW  Elec       q    Type
DOCKED: USER                           _______ _______ _______ _____ _____    ______ ____
DOCKED: ROOT
DOCKED: ATOM      1  C   UNL d   1      13.976   6.083   4.622 -0.14 +0.02    +0.064 A 
DOCKED: ATOM      2  C   UNL d   1      18.612   5.055   4.750 -0.15 +0.04    +0.064 A 
DOCKED: ATOM      3  C   UNL d   1      19.733   9.720   5.031 -0.11 +0.03    +0.064 C 
DOCKED: ATOM      4  C   UNL d   1      14.952  10.763   5.382 -0.07 +0.01    +0.064 A 
DOCKED: ATOM      5  C   UNL d   1      15.146   5.422   4.635 -0.21 +0.02    +0.066 A 
DOCKED: ATOM      6  C   UNL d   1      15.261   4.032   4.545 -0.35 -0.01    -0.021 A 
DOCKED: ATOM      7  C   UNL d   1      16.600   3.730   4.625 -0.26 -0.01    -0.025 A 
DOCKED: ATOM      8  C   UNL d   1      17.269   4.948   4.714 -0.20 +0.03    +0.066 A 
DOCKED: ATOM      9  C   UNL d   1      17.172   2.330   4.644 -0.27 +0.01    +0.051 C 
DOCKED: ATOM     10  C   UNL d   1      19.371   6.304   4.820 -0.12 +0.05    +0.066 A 
DOCKED: ATOM     11  C   UNL d   1      20.763   6.367   4.689 -0.04 -0.02    -0.021 A 
DOCKED: ATOM     12  C   UNL d   1      21.103   7.706   4.749 -0.10 +0.00    +0.000 A 
DOCKED: ATOM     13  C   UNL d   1      19.874   8.398   4.930 -0.13 +0.04    +0.070 A 
DOCKED: ATOM     14  C   UNL d   1      21.724   5.202   4.487 -0.06 +0.04    +0.052 C 
DOCKED: ATOM     15  C   UNL d   1      18.511  10.456   5.250 -0.07 +0.02    +0.066 A 
DOCKED: ATOM     16  C   UNL d   1      18.449  11.824   5.511 -0.06 -0.00    -0.021 A 
DOCKED: ATOM     17  C   UNL d   1      17.095  12.145   5.616 -0.06 +0.00    +0.000 A 
DOCKED: ATOM     18  C   UNL d   1      16.424  10.932   5.406 -0.01 +0.02    +0.070 A 
DOCKED: ATOM     19  C   UNL d   1      19.675  12.684   5.691 -0.03 +0.01    +0.052 C 
DOCKED: ATOM     20  C   UNL d   1      14.277   9.608   5.227 -0.11 +0.01    +0.066 A 
DOCKED: ATOM     21  C   UNL d   1      12.888   9.514   5.195 -0.14 -0.00    -0.025 A 
DOCKED: ATOM     22  C   UNL d   1      12.592   8.192   4.952 -0.21 -0.00    -0.021 A 
DOCKED: ATOM     23  C   UNL d   1      13.816   7.522   4.862 -0.18 +0.01    +0.066 A 
DOCKED: ATOM     24  C   UNL d   1      11.894  10.629   5.391 -0.17 +0.00    +0.051 C 
DOCKED: ATOM     25  N   UNL d   1      16.369   5.986   4.786 -0.13 -0.08    -0.248 N 
DOCKED: ATOM     26  N   UNL d   1      18.826   7.537   4.977 -0.11 -0.14    -0.248 N 
DOCKED: ATOM     27  N   UNL d   1      17.300   9.905   5.260 -0.06 -0.10    -0.248 N 
DOCKED: ATOM     28  N   UNL d   1      14.836   8.379   5.074 -0.10 -0.07    -0.248 N 
DOCKED: ATOM     29 FE   UNL d   1      16.817   7.964   5.026 -0.04 +0.00    +0.000 Fe
DOCKED: ATOM     30  O   UNL d   1      17.110   7.096   6.285 -0.08 +0.00    +0.000 OA
DOCKED: ATOM     31  O   UNL d   1      16.489   8.534   6.455 -0.07 +0.00    +0.000 OA
DOCKED: ENDROOT
DOCKED: BRANCH   6  32
DOCKED: ATOM     32  C   UNL d   1      14.150   3.014   4.522 -0.45 +0.02    +0.052 C 
DOCKED: BRANCH  32  33
DOCKED: ATOM     33  C   UNL d   1      13.903   2.377   5.886 -0.34 +0.04    +0.115 C 
DOCKED: BRANCH  33  34
DOCKED: ATOM     34  C   UNL d   1      13.101   3.269   6.801 -0.23 +0.10    +0.139 C 
DOCKED: ATOM     35  O   UNL d   1      13.580   3.631   7.863 -0.04 -0.52    -0.650 OA
DOCKED: BRANCH  34  36
DOCKED: ATOM     36  O   UNL d   1      11.848   3.657   6.484 -0.24 -0.86    -0.776 OA
DOCKED: ATOM     37  H   UNL d   1      11.540   4.559   6.631 +0.04 +0.20    +0.167 HD
DOCKED: ENDBRANCH  34  36
DOCKED: ENDBRANCH  33  34
DOCKED: ENDBRANCH  32  33
DOCKED: ENDBRANCH   6  32
DOCKED: BRANCH  22  38
DOCKED: ATOM     38  C   UNL d   1      11.208   7.601   4.877 -0.24 +0.01    +0.052 C 
DOCKED: BRANCH  38  39
DOCKED: ATOM     39  C   UNL d   1      10.497   7.609   6.228 -0.18 +0.04    +0.115 C 
DOCKED: BRANCH  39  40
DOCKED: ATOM     40  C   UNL d   1      11.362   7.065   7.338 -0.15 +0.09    +0.139 C 
DOCKED: ATOM     41  O   UNL d   1      12.133   7.807   7.924 +0.03 -0.30    -0.650 OA
DOCKED: BRANCH  40  42
DOCKED: ATOM     42  O   UNL d   1      11.262   5.780   7.731 -0.35 -1.20    -0.776 OA
DOCKED: ATOM     43  H   UNL d   1      12.036   5.206   7.780 +0.03 +0.24    +0.167 HD
DOCKED: ENDBRANCH  40  42
DOCKED: ENDBRANCH  39  40
DOCKED: ENDBRANCH  38  39
DOCKED: ENDBRANCH  22  38
DOCKED: BRANCH  12  44
DOCKED: ATOM     44  C   UNL d   1      22.538   8.176   4.634 -0.07 +0.00    +0.004 C 
DOCKED: ATOM     45  C   UNL d   1      23.068   8.969   3.704 -0.07 +0.01    +0.012 C 
DOCKED: ENDBRANCH  12  44
DOCKED: BRANCH  17  46
DOCKED: ATOM     46  C   UNL d   1      16.410  13.444   5.944 -0.04 +0.00    +0.004 C 
DOCKED: ATOM     47  C   UNL d   1      15.605  14.177   5.164 -0.04 -0.00    +0.012 C 
DOCKED: ENDBRANCH  17  46
DOCKED: TORSDOF 10
DOCKED: TER
DOCKED: ENDMDL
________________________________________________________________________________


	BEGINNING GENETIC ALGORITHM DOCKING 25 of 100
Run: 25 Seed: 1825928465 1181400853 [ Run 25 of 100 GA/GALS ]
Beginning LAMARCKIAN GENETIC ALGORITHM (LGA), with a maximum of 25000000 energy evaluations.

Final-Value: -10.065


	FINAL GENETIC ALGORITHM DOCKED STATE
	_______________________________________________


Detailed state:  trans 10.489 15.571 -9.819 quatxyzw -0.742611 0.278352 0.101296 0.600657 center 8.287 34.468 -0.670 ntor 10 61.1994 171.3609 53.3816 -83.3524 -159.5673 -53.4264 -20.8606 86.1216 -176.5622 161.4571
State:	 10.489  15.571  -9.819  -0.929  0.348  0.127 106.166     61.20  171.36   53.38  -83.35 -159.57  -53.43  -20.86   86.12 -176.56  161.46

DOCKED: MODEL       25
DOCKED: USER    Run = 25
DOCKED: USER    DPF = D:/Protein_go_brrr/autodock/final/mut_Y35F/heme_O2/dock.dpf
DOCKED: USER  
DOCKED: USER    Estimated Free Energy of Binding    =   -4.90 kcal/mol  [=(1)+(2)+(3)-(4)]
DOCKED: USER    Estimated Inhibition Constant, Ki   =  257.97 uM (micromolar)  [Temperature = 298.15 K]
DOCKED: USER    
DOCKED: USER    (1) Final Intermolecular Energy     =   -7.88 kcal/mol
DOCKED: USER        vdW + Hbond + desolv Energy     =   -7.03 kcal/mol
DOCKED: USER        Electrostatic Energy            =   -0.85 kcal/mol
DOCKED: USER    (2) Final Total Internal Energy     =   -2.19 kcal/mol
DOCKED: USER    (3) Torsional Free Energy           =   +2.98 kcal/mol
DOCKED: USER    (4) Unbound System's Energy  [=(2)] =   -2.19 kcal/mol
DOCKED: USER    
DOCKED: USER    
DOCKED: USER    NEWDPF move heme_O2_opt.pdbqt
DOCKED: USER    NEWDPF about 8.287000 34.468000 -0.670000
DOCKED: USER    NEWDPF tran0 10.489468 15.571139 -9.818585
DOCKED: USER    NEWDPF quaternion0 -0.742611 0.278352 0.101296 0.600657
DOCKED: USER    NEWDPF axisangle0 -0.928836 0.348155 0.126698 106.166117
DOCKED: USER    NEWDPF quat0 -0.928836 0.348155 0.126698 106.166117
DOCKED: USER    NEWDPF dihe0 61.20 171.36 53.38 -83.35 -159.57 -53.43 -20.86 86.12 -176.56 161.46 
DOCKED: USER  keepresnum = 1 
DOCKED: USER  
DOCKED: REMARK  10 active torsions:
DOCKED: REMARK  status: ('A' for Active; 'I' for Inactive)
DOCKED: REMARK    1  A    between atoms: C_6  and  C_10 
DOCKED: REMARK    2  A    between atoms: C_10  and  C_11 
DOCKED: REMARK    3  A    between atoms: C_11  and  C_12 
DOCKED: REMARK    4  A    between atoms: C_12  and  O_14 
DOCKED: REMARK    5  A    between atoms: C_17  and  C_20 
DOCKED: REMARK    6  A    between atoms: C_24  and  C_27 
DOCKED: REMARK    7  A    between atoms: C_31  and  C_34 
DOCKED: REMARK    8  A    between atoms: C_34  and  C_35 
DOCKED: REMARK    9  A    between atoms: C_35  and  C_36 
DOCKED: REMARK   10  A    between atoms: C_36  and  O_38 
DOCKED: USER                              x       y       z     vdW  Elec       q    Type
DOCKED: USER                           _______ _______ _______ _____ _____    ______ ____
DOCKED: ROOT
DOCKED: ATOM      1  C   UNL d   1       9.160  17.166  -9.385 -0.09 +0.00    +0.064 A 
DOCKED: ATOM      2  C   UNL d   1       9.127  13.776 -12.712 -0.19 -0.00    +0.064 A 
DOCKED: ATOM      3  C   UNL d   1      13.281  12.000 -11.074 -0.02 -0.02    +0.064 C 
DOCKED: ATOM      4  C   UNL d   1      13.083  15.189  -7.351 -0.18 -0.02    +0.064 A 
DOCKED: ATOM      5  C   UNL d   1       8.811  16.388 -10.423 -0.11 +0.00    +0.066 A 
DOCKED: ATOM      6  C   UNL d   1       7.665  16.585 -11.198 -0.11 -0.00    -0.021 A 
DOCKED: ATOM      7  C   UNL d   1       7.632  15.578 -12.135 -0.15 -0.00    -0.025 A 
DOCKED: ATOM      8  C   UNL d   1       8.784  14.822 -11.936 -0.18 -0.00    +0.066 A 
DOCKED: ATOM      9  C   UNL d   1       6.518  15.364 -13.137 -0.14 +0.00    +0.051 C 
DOCKED: ATOM     10  C   UNL d   1      10.333  12.960 -12.566 -0.15 -0.00    +0.066 A 
DOCKED: ATOM     11  C   UNL d   1      10.723  11.990 -13.497 -0.05 +0.00    -0.021 A 
DOCKED: ATOM     12  C   UNL d   1      11.928  11.479 -13.052 -0.20 -0.00    +0.000 A 
DOCKED: ATOM     13  C   UNL d   1      12.205  12.173 -11.841 -0.19 -0.02    +0.070 A 
DOCKED: ATOM     14  C   UNL d   1       9.991  11.588 -14.772 -0.11 -0.00    +0.052 C 
DOCKED: ATOM     15  C   UNL d   1      13.581  12.656  -9.824 -0.11 -0.02    +0.066 A 
DOCKED: ATOM     16  C   UNL d   1      14.641  12.313  -8.986 -0.22 +0.01    -0.021 A 
DOCKED: ATOM     17  C   UNL d   1      14.604  13.208  -7.917 -0.20 -0.00    +0.000 A 
DOCKED: ATOM     18  C   UNL d   1      13.511  14.043  -8.188 -0.16 -0.02    +0.070 A 
DOCKED: ATOM     19  C   UNL d   1      15.552  11.140  -9.249 -0.34 -0.02    +0.052 C 
DOCKED: ATOM     20  C   UNL d   1      12.014  15.982  -7.559 -0.15 -0.01    +0.066 A 
DOCKED: ATOM     21  C   UNL d   1      11.671  17.058  -6.745 -0.15 +0.01    -0.025 A 
DOCKED: ATOM     22  C   UNL d   1      10.571  17.650  -7.325 -0.12 +0.00    -0.021 A 
DOCKED: ATOM     23  C   UNL d   1      10.272  16.899  -8.465 -0.11 -0.00    +0.066 A 
DOCKED: ATOM     24  C   UNL d   1      12.356  17.497  -5.477 -0.12 -0.04    +0.051 C 
DOCKED: ATOM     25  N   UNL d   1       9.476  15.282 -10.839 -0.10 +0.00    -0.248 N 
DOCKED: ATOM     26  N   UNL d   1      11.227  13.068 -11.551 -0.14 +0.04    -0.248 N 
DOCKED: ATOM     27  N   UNL d   1      12.857  13.646  -9.309 -0.10 +0.05    -0.248 N 
DOCKED: ATOM     28  N   UNL d   1      11.124  15.859  -8.579 -0.08 +0.02    -0.248 N 
DOCKED: ATOM     29 FE   UNL d   1      11.177  14.473 -10.053 -0.04 -0.00    +0.000 Fe
DOCKED: ATOM     30  O   UNL d   1       9.913  13.586  -9.861 -0.43 -0.00    +0.000 OA
DOCKED: ATOM     31  O   UNL d   1      10.964  13.709  -8.694 -0.45 -0.00    +0.000 OA
DOCKED: ENDROOT
DOCKED: BRANCH   6  32
DOCKED: ATOM     32  C   UNL d   1       6.569  17.597 -10.985 -0.08 +0.00    +0.052 C 
DOCKED: BRANCH  32  33
DOCKED: ATOM     33  C   UNL d   1       5.412  17.050 -10.155 -0.13 +0.02    +0.115 C 
DOCKED: BRANCH  33  34
DOCKED: ATOM     34  C   UNL d   1       4.619  18.144  -9.483 -0.09 +0.03    +0.139 C 
DOCKED: ATOM     35  O   UNL d   1       4.235  19.100 -10.137 +0.03 -0.06    -0.650 OA
DOCKED: BRANCH  34  36
DOCKED: ATOM     36  O   UNL d   1       4.347  18.104  -8.162 +0.03 -0.33    -0.776 OA
DOCKED: ATOM     37  H   UNL d   1       5.044  18.107  -7.496 +0.03 +0.12    +0.167 HD
DOCKED: ENDBRANCH  34  36
DOCKED: ENDBRANCH  33  34
DOCKED: ENDBRANCH  32  33
DOCKED: ENDBRANCH   6  32
DOCKED: BRANCH  22  38
DOCKED: ATOM     38  C   UNL d   1       9.817  18.831  -6.772 -0.10 -0.00    +0.052 C 
DOCKED: BRANCH  38  39
DOCKED: ATOM     39  C   UNL d   1       8.585  18.413  -5.973 -0.03 +0.03    +0.115 C 
DOCKED: BRANCH  39  40
DOCKED: ATOM     40  C   UNL d   1       7.327  18.423  -6.805 -0.01 +0.08    +0.139 C 
DOCKED: ATOM     41  O   UNL d   1       6.979  17.410  -7.391 -0.25 -0.37    -0.650 OA
DOCKED: BRANCH  40  42
DOCKED: ATOM     42  O   UNL d   1       6.547  19.519  -6.875 -0.22 -0.39    -0.776 OA
DOCKED: ATOM     43  H   UNL d   1       5.788  19.562  -7.469 +0.02 +0.07    +0.167 HD
DOCKED: ENDBRANCH  40  42
DOCKED: ENDBRANCH  39  40
DOCKED: ENDBRANCH  38  39
DOCKED: ENDBRANCH  22  38
DOCKED: BRANCH  12  44
DOCKED: ATOM     44  C   UNL d   1      12.674  10.401 -13.810 -0.24 -0.00    +0.004 C 
DOCKED: ATOM     45  C   UNL d   1      13.185   9.268 -13.331 -0.38 -0.00    +0.012 C 
DOCKED: ENDBRANCH  12  44
DOCKED: BRANCH  17  46
DOCKED: ATOM     46  C   UNL d   1      15.451  13.301  -6.676 -0.26 -0.00    +0.004 C 
DOCKED: ATOM     47  C   UNL d   1      15.245  12.720  -5.487 -0.45 -0.00    +0.012 C 
DOCKED: ENDBRANCH  17  46
DOCKED: TORSDOF 10
DOCKED: TER
DOCKED: ENDMDL
________________________________________________________________________________


	BEGINNING GENETIC ALGORITHM DOCKING 26 of 100
Run: 26 Seed: 1598129378 2112758114 [ Run 26 of 100 GA/GALS ]
Beginning LAMARCKIAN GENETIC ALGORITHM (LGA), with a maximum of 25000000 energy evaluations.

Final-Value: -10.926


	FINAL GENETIC ALGORITHM DOCKED STATE
	_______________________________________________


Detailed state:  trans 14.258 11.020 5.076 quatxyzw 0.736771 0.625260 -0.196656 0.165967 center 8.287 34.468 -0.670 ntor 10 21.5530 -118.8788 95.2559 -103.1070 -133.2417 -176.4601 -60.8946 112.6339 -15.8566 180.0000
State:	 14.258  11.020   5.076   0.747  0.634 -0.199 160.893     21.55 -118.88   95.26 -103.11 -133.24 -176.46  -60.89  112.63  -15.86  180.00

DOCKED: MODEL       26
DOCKED: USER    Run = 26
DOCKED: USER    DPF = D:/Protein_go_brrr/autodock/final/mut_Y35F/heme_O2/dock.dpf
DOCKED: USER  
DOCKED: USER    Estimated Free Energy of Binding    =   -7.21 kcal/mol  [=(1)+(2)+(3)-(4)]
DOCKED: USER    Estimated Inhibition Constant, Ki   =    5.23 uM (micromolar)  [Temperature = 298.15 K]
DOCKED: USER    
DOCKED: USER    (1) Final Intermolecular Energy     =  -10.19 kcal/mol
DOCKED: USER        vdW + Hbond + desolv Energy     =   -7.64 kcal/mol
DOCKED: USER        Electrostatic Energy            =   -2.55 kcal/mol
DOCKED: USER    (2) Final Total Internal Energy     =   -0.74 kcal/mol
DOCKED: USER    (3) Torsional Free Energy           =   +2.98 kcal/mol
DOCKED: USER    (4) Unbound System's Energy  [=(2)] =   -0.74 kcal/mol
DOCKED: USER    
DOCKED: USER    
DOCKED: USER    NEWDPF move heme_O2_opt.pdbqt
DOCKED: USER    NEWDPF about 8.287000 34.468000 -0.670000
DOCKED: USER    NEWDPF tran0 14.257844 11.019529 5.076132
DOCKED: USER    NEWDPF quaternion0 0.736771 0.625260 -0.196656 0.165967
DOCKED: USER    NEWDPF axisangle0 0.747133 0.634053 -0.199422 160.893121
DOCKED: USER    NEWDPF quat0 0.747133 0.634053 -0.199422 160.893121
DOCKED: USER    NEWDPF dihe0 21.55 -118.88 95.26 -103.11 -133.24 -176.46 -60.89 112.63 -15.86 180.00 
DOCKED: USER  keepresnum = 1 
DOCKED: USER  
DOCKED: REMARK  10 active torsions:
DOCKED: REMARK  status: ('A' for Active; 'I' for Inactive)
DOCKED: REMARK    1  A    between atoms: C_6  and  C_10 
DOCKED: REMARK    2  A    between atoms: C_10  and  C_11 
DOCKED: REMARK    3  A    between atoms: C_11  and  C_12 
DOCKED: REMARK    4  A    between atoms: C_12  and  O_14 
DOCKED: REMARK    5  A    between atoms: C_17  and  C_20 
DOCKED: REMARK    6  A    between atoms: C_24  and  C_27 
DOCKED: REMARK    7  A    between atoms: C_31  and  C_34 
DOCKED: REMARK    8  A    between atoms: C_34  and  C_35 
DOCKED: REMARK    9  A    between atoms: C_35  and  C_36 
DOCKED: REMARK   10  A    between atoms: C_36  and  O_38 
DOCKED: USER                              x       y       z     vdW  Elec       q    Type
DOCKED: USER                           _______ _______ _______ _____ _____    ______ ____
DOCKED: ROOT
DOCKED: ATOM      1  C   UNL d   1      14.908   9.078   5.629 -0.09 +0.02    +0.064 A 
DOCKED: ATOM      2  C   UNL d   1      10.895  10.676   3.654 -0.13 -0.01    +0.064 A 
DOCKED: ATOM      3  C   UNL d   1      12.507  15.201   3.820 -0.09 -0.01    +0.064 C 
DOCKED: ATOM      4  C   UNL d   1      16.831  13.515   5.412 -0.04 +0.00    +0.064 A 
DOCKED: ATOM      5  C   UNL d   1      13.686   9.143   5.076 -0.14 +0.01    +0.066 A 
DOCKED: ATOM      6  C   UNL d   1      12.859   8.035   4.871 -0.22 -0.00    -0.021 A 
DOCKED: ATOM      7  C   UNL d   1      11.715   8.490   4.259 -0.29 -0.00    -0.025 A 
DOCKED: ATOM      8  C   UNL d   1      11.853   9.872   4.152 -0.23 -0.00    +0.066 A 
DOCKED: ATOM      9  C   UNL d   1      10.577   7.612   3.787 -0.23 +0.00    +0.051 C 
DOCKED: ATOM     10  C   UNL d   1      10.974  12.133   3.537 -0.13 -0.01    +0.066 A 
DOCKED: ATOM     11  C   UNL d   1       9.889  12.935   3.165 -0.40 +0.00    -0.021 A 
DOCKED: ATOM     12  C   UNL d   1      10.329  14.244   3.225 -0.35 -0.00    +0.000 A 
DOCKED: ATOM     13  C   UNL d   1      11.691  14.165   3.626 -0.16 -0.01    +0.070 A 
DOCKED: ATOM     14  C   UNL d   1       8.484  12.473   2.796 -0.46 -0.00    +0.052 C 
DOCKED: ATOM     15  C   UNL d   1      13.901  15.160   4.192 -0.03 -0.01    +0.066 A 
DOCKED: ATOM     16  C   UNL d   1      14.744  16.271   4.219 -0.02 +0.00    -0.021 A 
DOCKED: ATOM     17  C   UNL d   1      15.983  15.814   4.669 -0.02 -0.00    +0.000 A 
DOCKED: ATOM     18  C   UNL d   1      15.799  14.442   4.888 -0.03 -0.00    +0.070 A 
DOCKED: ATOM     19  C   UNL d   1      14.313  17.642   3.764 -0.01 -0.01    +0.052 C 
DOCKED: ATOM     20  C   UNL d   1      16.701  12.187   5.593 -0.06 +0.01    +0.066 A 
DOCKED: ATOM     21  C   UNL d   1      17.703  11.368   6.107 -0.05 -0.00    -0.025 A 
DOCKED: ATOM     22  C   UNL d   1      17.164  10.105   6.201 -0.07 -0.01    -0.021 A 
DOCKED: ATOM     23  C   UNL d   1      15.853  10.196   5.722 -0.03 +0.02    +0.066 A 
DOCKED: ATOM     24  C   UNL d   1      19.105  11.770   6.485 -0.02 +0.01    +0.051 C 
DOCKED: ATOM     25  N   UNL d   1      13.095  10.265   4.596 -0.09 -0.02    -0.248 N 
DOCKED: ATOM     26  N   UNL d   1      12.076  12.876   3.810 -0.11 +0.03    -0.248 N 
DOCKED: ATOM     27  N   UNL d   1      14.552  14.049   4.522 -0.02 +0.01    -0.248 N 
DOCKED: ATOM     28  N   UNL d   1      15.591  11.454   5.312 -0.06 -0.05    -0.248 N 
DOCKED: ATOM     29 FE   UNL d   1      13.848  12.163   4.566 -0.03 +0.00    +0.000 Fe
DOCKED: ATOM     30  O   UNL d   1      13.689  11.527   3.154 -0.34 -0.00    +0.000 OA
DOCKED: ATOM     31  O   UNL d   1      14.958  12.402   3.478 -0.22 +0.00    +0.000 OA
DOCKED: ENDROOT
DOCKED: BRANCH   6  32
DOCKED: ATOM     32  C   UNL d   1      13.185   6.583   5.112 -0.27 +0.01    +0.052 C 
DOCKED: BRANCH  32  33
DOCKED: ATOM     33  C   UNL d   1      13.346   6.250   6.592 -0.13 +0.05    +0.115 C 
DOCKED: BRANCH  33  34
DOCKED: ATOM     34  C   UNL d   1      12.313   5.264   7.076 -0.16 +0.13    +0.139 C 
DOCKED: ATOM     35  O   UNL d   1      12.424   4.083   6.787 -0.42 -0.66    -0.650 OA
DOCKED: BRANCH  34  36
DOCKED: ATOM     36  O   UNL d   1      11.247   5.661   7.801 -0.35 -1.33    -0.776 OA
DOCKED: ATOM     37  H   UNL d   1      10.927   6.570   7.783 +0.04 +0.18    +0.167 HD
DOCKED: ENDBRANCH  34  36
DOCKED: ENDBRANCH  33  34
DOCKED: ENDBRANCH  32  33
DOCKED: ENDBRANCH   6  32
DOCKED: BRANCH  22  38
DOCKED: ATOM     38  C   UNL d   1      17.893   8.871   6.665 -0.05 +0.01    +0.052 C 
DOCKED: BRANCH  38  39
DOCKED: ATOM     39  C   UNL d   1      18.806   8.293   5.586 -0.10 +0.05    +0.115 C 
DOCKED: BRANCH  39  40
DOCKED: ATOM     40  C   UNL d   1      18.033   7.709   4.430 -0.25 +0.08    +0.139 C 
DOCKED: ATOM     41  O   UNL d   1      16.940   7.202   4.626 -0.02 -0.26    -0.650 OA
DOCKED: BRANCH  40  42
DOCKED: ATOM     42  O   UNL d   1      18.504   7.782   3.170 -0.52 -0.90    -0.776 OA
DOCKED: ATOM     43  H   UNL d   1      18.040   8.278   2.485 -0.39 +0.12    +0.167 HD
DOCKED: ENDBRANCH  40  42
DOCKED: ENDBRANCH  39  40
DOCKED: ENDBRANCH  38  39
DOCKED: ENDBRANCH  22  38
DOCKED: BRANCH  12  44
DOCKED: ATOM     44  C   UNL d   1       9.423  15.412   2.895 -0.41 -0.00    +0.004 C 
DOCKED: ATOM     45  C   UNL d   1       9.218  15.980   1.706 -0.40 -0.00    +0.012 C 
DOCKED: ENDBRANCH  12  44
DOCKED: BRANCH  17  46
DOCKED: ATOM     46  C   UNL d   1      17.295  16.531   4.847 -0.01 -0.00    +0.004 C 
DOCKED: ATOM     47  C   UNL d   1      18.418  16.393   4.131 -0.02 -0.00    +0.012 C 
DOCKED: ENDBRANCH  17  46
DOCKED: TORSDOF 10
DOCKED: TER
DOCKED: ENDMDL
________________________________________________________________________________


	BEGINNING GENETIC ALGORITHM DOCKING 27 of 100
Run: 27 Seed: 1626176132 1780143228 [ Run 27 of 100 GA/GALS ]
Beginning LAMARCKIAN GENETIC ALGORITHM (LGA), with a maximum of 25000000 energy evaluations.

Final-Value: -9.116


	FINAL GENETIC ALGORITHM DOCKED STATE
	_______________________________________________


Detailed state:  trans -15.131 -0.481 -0.735 quatxyzw 0.171500 -0.943262 -0.183724 -0.217001 center 8.287 34.468 -0.670 ntor 10 -51.2673 113.8359 -45.3379 -113.9638 19.7227 -66.3941 33.7487 -67.1575 152.0842 -169.0111
State:	-15.131  -0.481  -0.735   0.176 -0.966 -0.188 -154.934    -51.27  113.84  -45.34 -113.96   19.72  -66.39   33.75  -67.16  152.08 -169.01

DOCKED: MODEL       27
DOCKED: USER    Run = 27
DOCKED: USER    DPF = D:/Protein_go_brrr/autodock/final/mut_Y35F/heme_O2/dock.dpf
DOCKED: USER  
DOCKED: USER    Estimated Free Energy of Binding    =   -5.58 kcal/mol  [=(1)+(2)+(3)-(4)]
DOCKED: USER    Estimated Inhibition Constant, Ki   =   80.61 uM (micromolar)  [Temperature = 298.15 K]
DOCKED: USER    
DOCKED: USER    (1) Final Intermolecular Energy     =   -8.57 kcal/mol
DOCKED: USER        vdW + Hbond + desolv Energy     =   -7.75 kcal/mol
DOCKED: USER        Electrostatic Energy            =   -0.82 kcal/mol
DOCKED: USER    (2) Final Total Internal Energy     =   -0.55 kcal/mol
DOCKED: USER    (3) Torsional Free Energy           =   +2.98 kcal/mol
DOCKED: USER    (4) Unbound System's Energy  [=(2)] =   -0.55 kcal/mol
DOCKED: USER    
DOCKED: USER    
DOCKED: USER    NEWDPF move heme_O2_opt.pdbqt
DOCKED: USER    NEWDPF about 8.287000 34.468000 -0.670000
DOCKED: USER    NEWDPF tran0 -15.131170 -0.480981 -0.734733
DOCKED: USER    NEWDPF quaternion0 0.171500 -0.943262 -0.183724 -0.217001
DOCKED: USER    NEWDPF axisangle0 0.175686 -0.966288 -0.188209 -154.934131
DOCKED: USER    NEWDPF quat0 0.175686 -0.966288 -0.188209 -154.934131
DOCKED: USER    NEWDPF dihe0 -51.27 113.84 -45.34 -113.96 19.72 -66.39 33.75 -67.16 152.08 -169.01 
DOCKED: USER  keepresnum = 1 
DOCKED: USER  
DOCKED: REMARK  10 active torsions:
DOCKED: REMARK  status: ('A' for Active; 'I' for Inactive)
DOCKED: REMARK    1  A    between atoms: C_6  and  C_10 
DOCKED: REMARK    2  A    between atoms: C_10  and  C_11 
DOCKED: REMARK    3  A    between atoms: C_11  and  C_12 
DOCKED: REMARK    4  A    between atoms: C_12  and  O_14 
DOCKED: REMARK    5  A    between atoms: C_17  and  C_20 
DOCKED: REMARK    6  A    between atoms: C_24  and  C_27 
DOCKED: REMARK    7  A    between atoms: C_31  and  C_34 
DOCKED: REMARK    8  A    between atoms: C_34  and  C_35 
DOCKED: REMARK    9  A    between atoms: C_35  and  C_36 
DOCKED: REMARK   10  A    between atoms: C_36  and  O_38 
DOCKED: USER                              x       y       z     vdW  Elec       q    Type
DOCKED: USER                           _______ _______ _______ _____ _____    ______ ____
DOCKED: ROOT
DOCKED: ATOM      1  C   UNL d   1     -13.316   0.581  -0.458 -0.12 +0.01    +0.064 A 
DOCKED: ATOM      2  C   UNL d   1     -15.398  -1.266  -4.307 -0.11 +0.01    +0.064 A 
DOCKED: ATOM      3  C   UNL d   1     -19.046  -2.921  -1.653 -0.05 +0.03    +0.064 C 
DOCKED: ATOM      4  C   UNL d   1     -17.154  -0.612   2.240 -0.26 +0.02    +0.064 A 
DOCKED: ATOM      5  C   UNL d   1     -13.585   0.216  -1.722 -0.24 +0.01    +0.066 A 
DOCKED: ATOM      6  C   UNL d   1     -12.750   0.485  -2.810 -0.31 -0.00    -0.021 A 
DOCKED: ATOM      7  C   UNL d   1     -13.373  -0.011  -3.931 -0.23 -0.00    -0.025 A 
DOCKED: ATOM      8  C   UNL d   1     -14.548  -0.613  -3.491 -0.18 +0.01    +0.066 A 
DOCKED: ATOM      9  C   UNL d   1     -12.851   0.130  -5.345 -0.18 +0.00    +0.051 C 
DOCKED: ATOM     10  C   UNL d   1     -16.633  -1.936  -3.900 -0.09 +0.01    +0.066 A 
DOCKED: ATOM     11  C   UNL d   1     -17.393  -2.738  -4.759 -0.06 -0.00    -0.021 A 
DOCKED: ATOM     12  C   UNL d   1     -18.440  -3.239  -4.008 -0.06 +0.00    +0.000 A 
DOCKED: ATOM     13  C   UNL d   1     -18.262  -2.693  -2.706 -0.06 +0.02    +0.070 A 
DOCKED: ATOM     14  C   UNL d   1     -17.116  -3.036  -6.228 -0.04 +0.00    +0.052 C 
DOCKED: ATOM     15  C   UNL d   1     -18.921  -2.360  -0.329 -0.06 +0.03    +0.066 A 
DOCKED: ATOM     16  C   UNL d   1     -19.866  -2.508   0.685 -0.10 -0.01    -0.021 A 
DOCKED: ATOM     17  C   UNL d   1     -19.349  -1.857   1.805 -0.17 +0.00    +0.000 A 
DOCKED: ATOM     18  C   UNL d   1     -18.109  -1.356   1.385 -0.19 +0.03    +0.070 A 
DOCKED: ATOM     19  C   UNL d   1     -21.189  -3.203   0.481 -0.05 +0.01    +0.052 C 
DOCKED: ATOM     20  C   UNL d   1     -15.977  -0.080   1.858 -0.24 +0.02    +0.066 A 
DOCKED: ATOM     21  C   UNL d   1     -15.111   0.595   2.714 -0.32 -0.01    -0.025 A 
DOCKED: ATOM     22  C   UNL d   1     -14.000   0.918   1.969 -0.33 -0.00    -0.021 A 
DOCKED: ATOM     23  C   UNL d   1     -14.238   0.443   0.676 -0.23 +0.01    +0.066 A 
DOCKED: ATOM     24  C   UNL d   1     -15.335   0.917   4.169 -0.33 +0.02    +0.051 C 
DOCKED: ATOM     25  N   UNL d   1     -14.710  -0.416  -2.139 -0.14 -0.04    -0.248 N 
DOCKED: ATOM     26  N   UNL d   1     -17.164  -1.898  -2.651 -0.06 -0.07    -0.248 N 
DOCKED: ATOM     27  N   UNL d   1     -17.900  -1.605   0.067 -0.08 -0.12    -0.248 N 
DOCKED: ATOM     28  N   UNL d   1     -15.460  -0.124   0.602 -0.12 -0.06    -0.248 N 
DOCKED: ATOM     29 FE   UNL d   1     -16.308  -1.005  -1.011 -0.05 +0.00    +0.000 Fe
DOCKED: ATOM     30  O   UNL d   1     -16.634   0.142  -2.012 -0.09 +0.00    +0.000 OA
DOCKED: ATOM     31  O   UNL d   1     -17.253   0.170  -0.564 -0.10 +0.00    +0.000 OA
DOCKED: ENDROOT
DOCKED: BRANCH   6  32
DOCKED: ATOM     32  C   UNL d   1     -11.482   1.299  -2.820 -0.17 -0.00    +0.052 C 
DOCKED: BRANCH  32  33
DOCKED: ATOM     33  C   UNL d   1     -11.521   2.444  -3.828 -0.17 +0.00    +0.115 C 
DOCKED: BRANCH  33  34
DOCKED: ATOM     34  C   UNL d   1     -10.159   2.756  -4.397 -0.23 +0.00    +0.139 C 
DOCKED: ATOM     35  O   UNL d   1      -9.768   3.912  -4.426 -0.02 -0.14    -0.650 OA
DOCKED: BRANCH  34  36
DOCKED: ATOM     36  O   UNL d   1      -9.370   1.787  -4.904 +0.08 +0.17    -0.776 OA
DOCKED: ATOM     37  H   UNL d   1      -9.171   0.981  -4.413 -0.36 -0.09    +0.167 HD
DOCKED: ENDBRANCH  34  36
DOCKED: ENDBRANCH  33  34
DOCKED: ENDBRANCH  32  33
DOCKED: ENDBRANCH   6  32
DOCKED: BRANCH  22  38
DOCKED: ATOM     38  C   UNL d   1     -12.808   1.698   2.462 -0.45 +0.01    +0.052 C 
DOCKED: BRANCH  38  39
DOCKED: ATOM     39  C   UNL d   1     -13.155   3.150   2.781 -0.27 +0.03    +0.115 C 
DOCKED: BRANCH  39  40
DOCKED: ATOM     40  C   UNL d   1     -13.081   3.449   4.258 -0.28 +0.07    +0.139 C 
DOCKED: ATOM     41  O   UNL d   1     -11.995   3.625   4.787 -0.49 -0.47    -0.650 OA
DOCKED: BRANCH  40  42
DOCKED: ATOM     42  O   UNL d   1     -14.199   3.578   4.998 +0.06 -0.41    -0.776 OA
DOCKED: ATOM     43  H   UNL d   1     -14.399   2.970   5.719 -0.39 +0.08    +0.167 HD
DOCKED: ENDBRANCH  40  42
DOCKED: ENDBRANCH  39  40
DOCKED: ENDBRANCH  38  39
DOCKED: ENDBRANCH  22  38
DOCKED: BRANCH  12  44
DOCKED: ATOM     44  C   UNL d   1     -19.482  -4.166  -4.598 -0.03 +0.00    +0.004 C 
DOCKED: ATOM     45  C   UNL d   1     -19.911  -5.330  -4.113 -0.03 +0.00    +0.012 C 
DOCKED: ENDBRANCH  12  44
DOCKED: BRANCH  17  46
DOCKED: ATOM     46  C   UNL d   1     -19.934  -1.628   3.173 -0.18 +0.00    +0.004 C 
DOCKED: ATOM     47  C   UNL d   1     -20.174  -0.462   3.786 -0.15 +0.00    +0.012 C 
DOCKED: ENDBRANCH  17  46
DOCKED: TORSDOF 10
DOCKED: TER
DOCKED: ENDMDL
________________________________________________________________________________


	BEGINNING GENETIC ALGORITHM DOCKING 28 of 100
Run: 28 Seed: 1718764991 972837044 [ Run 28 of 100 GA/GALS ]
Beginning LAMARCKIAN GENETIC ALGORITHM (LGA), with a maximum of 25000000 energy evaluations.

Final-Value: -11.508


	FINAL GENETIC ALGORITHM DOCKED STATE
	_______________________________________________


Detailed state:  trans 12.213 10.952 3.998 quatxyzw 0.040305 0.385456 0.680638 -0.621716 center 8.287 34.468 -0.670 ntor 10 -19.0878 112.2322 -28.3470 -10.6671 -112.6047 -70.8269 -17.6323 88.8440 -171.4159 174.3900
State:	 12.213  10.952   3.998   0.051  0.492  0.869 -103.117    -19.09  112.23  -28.35  -10.67 -112.60  -70.83  -17.63   88.84 -171.42  174.39

DOCKED: MODEL       28
DOCKED: USER    Run = 28
DOCKED: USER    DPF = D:/Protein_go_brrr/autodock/final/mut_Y35F/heme_O2/dock.dpf
DOCKED: USER  
DOCKED: USER    Estimated Free Energy of Binding    =   -6.40 kcal/mol  [=(1)+(2)+(3)-(4)]
DOCKED: USER    Estimated Inhibition Constant, Ki   =   20.22 uM (micromolar)  [Temperature = 298.15 K]
DOCKED: USER    
DOCKED: USER    (1) Final Intermolecular Energy     =   -9.39 kcal/mol
DOCKED: USER        vdW + Hbond + desolv Energy     =   -7.35 kcal/mol
DOCKED: USER        Electrostatic Energy            =   -2.03 kcal/mol
DOCKED: USER    (2) Final Total Internal Energy     =   -2.12 kcal/mol
DOCKED: USER    (3) Torsional Free Energy           =   +2.98 kcal/mol
DOCKED: USER    (4) Unbound System's Energy  [=(2)] =   -2.12 kcal/mol
DOCKED: USER    
DOCKED: USER    
DOCKED: USER    NEWDPF move heme_O2_opt.pdbqt
DOCKED: USER    NEWDPF about 8.287000 34.468000 -0.670000
DOCKED: USER    NEWDPF tran0 12.213142 10.952329 3.998350
DOCKED: USER    NEWDPF quaternion0 0.040305 0.385456 0.680638 -0.621716
DOCKED: USER    NEWDPF axisangle0 0.051459 0.492128 0.869001 -103.116913
DOCKED: USER    NEWDPF quat0 0.051459 0.492128 0.869001 -103.116913
DOCKED: USER    NEWDPF dihe0 -19.09 112.23 -28.35 -10.67 -112.60 -70.83 -17.63 88.84 -171.42 174.39 
DOCKED: USER  keepresnum = 1 
DOCKED: USER  
DOCKED: REMARK  10 active torsions:
DOCKED: REMARK  status: ('A' for Active; 'I' for Inactive)
DOCKED: REMARK    1  A    between atoms: C_6  and  C_10 
DOCKED: REMARK    2  A    between atoms: C_10  and  C_11 
DOCKED: REMARK    3  A    between atoms: C_11  and  C_12 
DOCKED: REMARK    4  A    between atoms: C_12  and  O_14 
DOCKED: REMARK    5  A    between atoms: C_17  and  C_20 
DOCKED: REMARK    6  A    between atoms: C_24  and  C_27 
DOCKED: REMARK    7  A    between atoms: C_31  and  C_34 
DOCKED: REMARK    8  A    between atoms: C_34  and  C_35 
DOCKED: REMARK    9  A    between atoms: C_35  and  C_36 
DOCKED: REMARK   10  A    between atoms: C_36  and  O_38 
DOCKED: USER                              x       y       z     vdW  Elec       q    Type
DOCKED: USER                           _______ _______ _______ _____ _____    ______ ____
DOCKED: ROOT
DOCKED: ATOM      1  C   UNL d   1      11.713   8.974   4.578 -0.22 +0.01    +0.064 A 
DOCKED: ATOM      2  C   UNL d   1      15.654  11.573   5.106 -0.06 +0.01    +0.064 A 
DOCKED: ATOM      3  C   UNL d   1      13.642  15.264   2.777 -0.12 -0.02    +0.064 C 
DOCKED: ATOM      4  C   UNL d   1       9.417  12.774   2.648 -0.28 -0.01    +0.064 A 
DOCKED: ATOM      5  C   UNL d   1      12.949   9.380   4.913 -0.15 +0.01    +0.066 A 
DOCKED: ATOM      6  C   UNL d   1      13.878   8.584   5.588 -0.12 -0.00    -0.021 A 
DOCKED: ATOM      7  C   UNL d   1      15.004   9.350   5.780 -0.09 -0.01    -0.025 A 
DOCKED: ATOM      8  C   UNL d   1      14.749  10.578   5.174 -0.08 +0.02    +0.066 A 
DOCKED: ATOM      9  C   UNL d   1      16.236   8.905   6.538 -0.06 +0.01    +0.051 C 
DOCKED: ATOM     10  C   UNL d   1      15.452  12.873   4.464 -0.09 +0.01    +0.066 A 
DOCKED: ATOM     11  C   UNL d   1      16.477  13.807   4.278 -0.08 -0.00    -0.021 A 
DOCKED: ATOM     12  C   UNL d   1      15.921  14.871   3.592 -0.08 -0.00    +0.000 A 
DOCKED: ATOM     13  C   UNL d   1      14.554  14.523   3.405 -0.08 -0.01    +0.070 A 
DOCKED: ATOM     14  C   UNL d   1      17.933  13.678   4.712 -0.06 +0.00    +0.052 C 
DOCKED: ATOM     15  C   UNL d   1      12.242  14.964   2.597 -0.15 -0.02    +0.066 A 
DOCKED: ATOM     16  C   UNL d   1      11.303  15.854   2.076 -0.19 +0.01    -0.021 A 
DOCKED: ATOM     17  C   UNL d   1      10.091  15.166   2.030 -0.37 -0.00    +0.000 A 
DOCKED: ATOM     18  C   UNL d   1      10.385  13.890   2.532 -0.33 -0.01    +0.070 A 
DOCKED: ATOM     19  C   UNL d   1      11.631  17.283   1.723 -0.12 -0.02    +0.052 C 
DOCKED: ATOM     20  C   UNL d   1       9.655  11.553   3.164 -0.23 -0.01    +0.066 A 
DOCKED: ATOM     21  C   UNL d   1       8.708  10.535   3.230 -0.44 +0.00    -0.025 A 
DOCKED: ATOM     22  C   UNL d   1       9.352   9.436   3.753 -0.39 +0.00    -0.021 A 
DOCKED: ATOM     23  C   UNL d   1      10.669   9.831   4.004 -0.29 -0.00    +0.066 A 
DOCKED: ATOM     24  C   UNL d   1       7.260  10.609   2.819 -0.33 +0.00    +0.051 C 
DOCKED: ATOM     25  N   UNL d   1      13.459  10.618   4.698 -0.09 -0.02    -0.248 N 
DOCKED: ATOM     26  N   UNL d   1      14.277  13.308   3.942 -0.06 +0.01    -0.248 N 
DOCKED: ATOM     27  N   UNL d   1      11.677  13.810   2.941 -0.14 +0.05    -0.248 N 
DOCKED: ATOM     28  N   UNL d   1      10.837  11.131   3.687 -0.13 +0.04    -0.248 N 
DOCKED: ATOM     29 FE   UNL d   1      12.543  12.214   3.813 -0.05 -0.00    +0.000 Fe
DOCKED: ATOM     30  O   UNL d   1      12.821  12.412   5.331 -0.13 +0.00    +0.000 OA
DOCKED: ATOM     31  O   UNL d   1      11.466  12.924   4.712 -0.15 -0.00    +0.000 OA
DOCKED: ENDROOT
DOCKED: BRANCH   6  32
DOCKED: ATOM     32  C   UNL d   1      13.672   7.203   6.155 -0.13 +0.02    +0.052 C 
DOCKED: BRANCH  32  33
DOCKED: ATOM     33  C   UNL d   1      13.124   7.223   7.579 -0.06 +0.05    +0.115 C 
DOCKED: BRANCH  33  34
DOCKED: ATOM     34  C   UNL d   1      12.479   5.915   7.965 -0.11 +0.13    +0.139 C 
DOCKED: ATOM     35  O   UNL d   1      13.122   5.086   8.589 -0.07 -0.70    -0.650 OA
DOCKED: BRANCH  34  36
DOCKED: ATOM     36  O   UNL d   1      11.210   5.625   7.611 -0.38 -1.25    -0.776 OA
DOCKED: ATOM     37  H   UNL d   1      10.585   6.310   7.345 +0.04 +0.18    +0.167 HD
DOCKED: ENDBRANCH  34  36
DOCKED: ENDBRANCH  33  34
DOCKED: ENDBRANCH  32  33
DOCKED: ENDBRANCH   6  32
DOCKED: BRANCH  22  38
DOCKED: ATOM     38  C   UNL d   1       8.714   8.104   4.051 -0.34 +0.01    +0.052 C 
DOCKED: BRANCH  38  39
DOCKED: ATOM     39  C   UNL d   1       8.021   8.082   5.412 -0.17 +0.02    +0.115 C 
DOCKED: BRANCH  39  40
DOCKED: ATOM     40  C   UNL d   1       8.927   7.588   6.512 -0.26 +0.05    +0.139 C 
DOCKED: ATOM     41  O   UNL d   1       9.820   8.307   6.931 +0.00 -0.21    -0.650 OA
DOCKED: BRANCH  40  42
DOCKED: ATOM     42  O   UNL d   1       8.737   6.382   7.080 +0.01 -0.53    -0.776 OA
DOCKED: ATOM     43  H   UNL d   1       9.387   5.674   6.993 +0.06 +0.18    +0.167 HD
DOCKED: ENDBRANCH  40  42
DOCKED: ENDBRANCH  39  40
DOCKED: ENDBRANCH  38  39
DOCKED: ENDBRANCH  22  38
DOCKED: BRANCH  12  44
DOCKED: ATOM     44  C   UNL d   1      16.734  16.086   3.198 -0.06 -0.00    +0.004 C 
DOCKED: ATOM     45  C   UNL d   1      16.588  16.853   2.118 -0.09 -0.01    +0.012 C 
DOCKED: ENDBRANCH  12  44
DOCKED: BRANCH  17  46
DOCKED: ATOM     46  C   UNL d   1       8.714  15.616   1.621 -0.30 -0.00    +0.004 C 
DOCKED: ATOM     47  C   UNL d   1       8.254  16.868   1.497 -0.36 -0.00    +0.012 C 
DOCKED: ENDBRANCH  17  46
DOCKED: TORSDOF 10
DOCKED: TER
DOCKED: ENDMDL
________________________________________________________________________________


	BEGINNING GENETIC ALGORITHM DOCKING 29 of 100
Run: 29 Seed: 105270808 169281211 [ Run 29 of 100 GA/GALS ]
Beginning LAMARCKIAN GENETIC ALGORITHM (LGA), with a maximum of 25000000 energy evaluations.

Final-Value: -9.679


	FINAL GENETIC ALGORITHM DOCKED STATE
	_______________________________________________


Detailed state:  trans 2.234 2.669 -15.050 quatxyzw -0.714345 -0.446439 0.362235 -0.398987 center 8.287 34.468 -0.670 ntor 10 144.4994 132.7048 -42.4319 118.4004 -62.6492 -12.1129 96.1948 -81.6652 10.0431 -34.4513
State:	  2.234   2.669 -15.050  -0.779 -0.487  0.395 -132.970    144.50  132.70  -42.43  118.40  -62.65  -12.11   96.19  -81.67   10.04  -34.45

DOCKED: MODEL       29
DOCKED: USER    Run = 29
DOCKED: USER    DPF = D:/Protein_go_brrr/autodock/final/mut_Y35F/heme_O2/dock.dpf
DOCKED: USER  
DOCKED: USER    Estimated Free Energy of Binding    =   -4.55 kcal/mol  [=(1)+(2)+(3)-(4)]
DOCKED: USER    Estimated Inhibition Constant, Ki   =  460.79 uM (micromolar)  [Temperature = 298.15 K]
DOCKED: USER    
DOCKED: USER    (1) Final Intermolecular Energy     =   -7.53 kcal/mol
DOCKED: USER        vdW + Hbond + desolv Energy     =   -6.36 kcal/mol
DOCKED: USER        Electrostatic Energy            =   -1.18 kcal/mol
DOCKED: USER    (2) Final Total Internal Energy     =   -2.14 kcal/mol
DOCKED: USER    (3) Torsional Free Energy           =   +2.98 kcal/mol
DOCKED: USER    (4) Unbound System's Energy  [=(2)] =   -2.14 kcal/mol
DOCKED: USER    
DOCKED: USER    
DOCKED: USER    NEWDPF move heme_O2_opt.pdbqt
DOCKED: USER    NEWDPF about 8.287000 34.468000 -0.670000
DOCKED: USER    NEWDPF tran0 2.233946 2.668816 -15.049862
DOCKED: USER    NEWDPF quaternion0 -0.714345 -0.446439 0.362235 -0.398987
DOCKED: USER    NEWDPF axisangle0 -0.779038 -0.486870 0.395040 -132.970325
DOCKED: USER    NEWDPF quat0 -0.779038 -0.486870 0.395040 -132.970325
DOCKED: USER    NEWDPF dihe0 144.50 132.70 -42.43 118.40 -62.65 -12.11 96.19 -81.67 10.04 -34.45 
DOCKED: USER  keepresnum = 1 
DOCKED: USER  
DOCKED: REMARK  10 active torsions:
DOCKED: REMARK  status: ('A' for Active; 'I' for Inactive)
DOCKED: REMARK    1  A    between atoms: C_6  and  C_10 
DOCKED: REMARK    2  A    between atoms: C_10  and  C_11 
DOCKED: REMARK    3  A    between atoms: C_11  and  C_12 
DOCKED: REMARK    4  A    between atoms: C_12  and  O_14 
DOCKED: REMARK    5  A    between atoms: C_17  and  C_20 
DOCKED: REMARK    6  A    between atoms: C_24  and  C_27 
DOCKED: REMARK    7  A    between atoms: C_31  and  C_34 
DOCKED: REMARK    8  A    between atoms: C_34  and  C_35 
DOCKED: REMARK    9  A    between atoms: C_35  and  C_36 
DOCKED: REMARK   10  A    between atoms: C_36  and  O_38 
DOCKED: USER                              x       y       z     vdW  Elec       q    Type
DOCKED: USER                           _______ _______ _______ _____ _____    ______ ____
DOCKED: ROOT
DOCKED: ATOM      1  C   UNL d   1       2.509   0.568 -14.951 -0.08 +0.01    +0.064 A 
DOCKED: ATOM      2  C   UNL d   1      -1.283   3.343 -14.258 -0.12 +0.00    +0.064 A 
DOCKED: ATOM      3  C   UNL d   1       1.330   7.284 -15.114 -0.27 -0.01    +0.064 C 
DOCKED: ATOM      4  C   UNL d   1       5.126   4.412 -16.298 -0.24 -0.01    +0.064 A 
DOCKED: ATOM      5  C   UNL d   1       1.264   1.001 -14.694 -0.12 +0.00    +0.066 A 
DOCKED: ATOM      6  C   UNL d   1       0.195   0.161 -14.369 -0.10 -0.00    -0.021 A 
DOCKED: ATOM      7  C   UNL d   1      -0.914   0.960 -14.211 -0.09 -0.00    -0.025 A 
DOCKED: ATOM      8  C   UNL d   1      -0.480   2.270 -14.396 -0.11 +0.00    +0.066 A 
DOCKED: ATOM      9  C   UNL d   1      -2.311   0.455 -13.926 -0.08 +0.00    +0.051 C 
DOCKED: ATOM     10  C   UNL d   1      -0.880   4.741 -14.417 -0.16 -0.00    +0.066 A 
DOCKED: ATOM     11  C   UNL d   1      -1.712   5.822 -14.102 -0.15 +0.00    -0.021 A 
DOCKED: ATOM     12  C   UNL d   1      -0.970   6.967 -14.326 -0.15 -0.00    +0.000 A 
DOCKED: ATOM     13  C   UNL d   1       0.296   6.510 -14.786 -0.23 -0.01    +0.070 A 
DOCKED: ATOM     14  C   UNL d   1      -3.144   5.763 -13.584 -0.11 +0.00    +0.052 C 
DOCKED: ATOM     15  C   UNL d   1       2.615   6.863 -15.617 -0.10 -0.02    +0.066 A 
DOCKED: ATOM     16  C   UNL d   1       3.598   7.727 -16.098 -0.21 +0.00    -0.021 A 
DOCKED: ATOM     17  C   UNL d   1       4.690   6.930 -16.443 -0.22 -0.00    +0.000 A 
DOCKED: ATOM     18  C   UNL d   1       4.286   5.622 -16.140 -0.24 -0.01    +0.070 A 
DOCKED: ATOM     19  C   UNL d   1       3.389   9.214 -16.237 -0.18 -0.01    +0.052 C 
DOCKED: ATOM     20  C   UNL d   1       4.756   3.139 -16.059 -0.19 -0.00    +0.066 A 
DOCKED: ATOM     21  C   UNL d   1       5.597   2.040 -16.209 -0.17 +0.00    -0.025 A 
DOCKED: ATOM     22  C   UNL d   1       4.877   0.939 -15.804 -0.11 -0.00    -0.021 A 
DOCKED: ATOM     23  C   UNL d   1       3.611   1.406 -15.436 +0.01 +0.00    +0.066 A 
DOCKED: ATOM     24  C   UNL d   1       7.016   2.040 -16.718 -0.15 -0.00    +0.051 C 
DOCKED: ATOM     25  N   UNL d   1       0.847   2.289 -14.758 -0.06 -0.01    -0.248 N 
DOCKED: ATOM     26  N   UNL d   1       0.340   5.155 -14.843 -0.11 +0.01    -0.248 N 
DOCKED: ATOM     27  N   UNL d   1       2.999   5.593 -15.711 -0.15 +0.04    -0.248 N 
DOCKED: ATOM     28  N   UNL d   1       3.528   2.738 -15.636 -0.06 -0.00    -0.248 N 
DOCKED: ATOM     29 FE   UNL d   1       1.947   3.940 -15.243 -0.05 -0.00    +0.000 Fe
DOCKED: ATOM     30  O   UNL d   1       0.856   3.581 -16.294 -0.11 -0.00    +0.000 OA
DOCKED: ATOM     31  O   UNL d   1       2.273   4.074 -16.776 -0.13 -0.00    +0.000 OA
DOCKED: ENDROOT
DOCKED: BRANCH   6  32
DOCKED: ATOM     32  C   UNL d   1       0.179  -1.345 -14.342 -0.09 +0.01    +0.052 C 
DOCKED: BRANCH  32  33
DOCKED: ATOM     33  C   UNL d   1       0.470  -1.916 -12.958 -0.16 +0.03    +0.115 C 
DOCKED: BRANCH  33  34
DOCKED: ATOM     34  C   UNL d   1       1.948  -2.061 -12.694 -0.16 +0.07    +0.139 C 
DOCKED: ATOM     35  O   UNL d   1       2.378  -1.898 -11.563 -0.45 -0.45    -0.650 OA
DOCKED: BRANCH  34  36
DOCKED: ATOM     36  O   UNL d   1       2.816  -2.340 -13.689 +0.02 -0.47    -0.776 OA
DOCKED: ATOM     37  H   UNL d   1       3.708  -1.976 -13.706 +0.04 +0.10    +0.167 HD
DOCKED: ENDBRANCH  34  36
DOCKED: ENDBRANCH  33  34
DOCKED: ENDBRANCH  32  33
DOCKED: ENDBRANCH   6  32
DOCKED: BRANCH  22  38
DOCKED: ATOM     38  C   UNL d   1       5.362  -0.487 -15.832 -0.10 +0.00    +0.052 C 
DOCKED: BRANCH  38  39
DOCKED: ATOM     39  C   UNL d   1       6.491  -0.738 -14.834 -0.15 +0.01    +0.115 C 
DOCKED: BRANCH  39  40
DOCKED: ATOM     40  C   UNL d   1       5.996  -1.334 -13.541 -0.26 +0.05    +0.139 C 
DOCKED: ATOM     41  O   UNL d   1       6.566  -2.301 -13.062 -0.03 -0.33    -0.650 OA
DOCKED: BRANCH  40  42
DOCKED: ATOM     42  O   UNL d   1       4.962  -0.786 -12.873 +0.02 -0.30    -0.776 OA
DOCKED: ATOM     43  H   UNL d   1       4.254  -1.328 -12.505 +0.06 +0.11    +0.167 HD
DOCKED: ENDBRANCH  40  42
DOCKED: ENDBRANCH  39  40
DOCKED: ENDBRANCH  38  39
DOCKED: ENDBRANCH  22  38
DOCKED: BRANCH  12  44
DOCKED: ATOM     44  C   UNL d   1      -1.536   8.351 -14.085 -0.19 -0.00    +0.004 C 
DOCKED: ATOM     45  C   UNL d   1      -0.966   9.368 -13.440 -0.25 -0.00    +0.012 C 
DOCKED: ENDBRANCH  12  44
DOCKED: BRANCH  17  46
DOCKED: ATOM     46  C   UNL d   1       6.014   7.284 -17.067 -0.17 -0.00    +0.004 C 
DOCKED: ATOM     47  C   UNL d   1       7.230   7.242 -16.508 -0.22 -0.00    +0.012 C 
DOCKED: ENDBRANCH  17  46
DOCKED: TORSDOF 10
DOCKED: TER
DOCKED: ENDMDL
________________________________________________________________________________


	BEGINNING GENETIC ALGORITHM DOCKING 30 of 100
Run: 30 Seed: 1702511322 1667469175 [ Run 30 of 100 GA/GALS ]
Beginning LAMARCKIAN GENETIC ALGORITHM (LGA), with a maximum of 25000000 energy evaluations.

Final-Value: -10.400


	FINAL GENETIC ALGORITHM DOCKED STATE
	_______________________________________________


Detailed state:  trans 11.029 13.185 8.162 quatxyzw -0.383658 -0.671493 0.155179 0.614672 center 8.287 34.468 -0.670 ntor 10 144.4364 -124.9430 78.1412 122.8199 -172.7385 -147.0511 -51.2660 49.9179 -163.9560 177.1870
State:	 11.029  13.185   8.162  -0.486 -0.851  0.197 104.144    144.44 -124.94   78.14  122.82 -172.74 -147.05  -51.27   49.92 -163.96  177.19

DOCKED: MODEL       30
DOCKED: USER    Run = 30
DOCKED: USER    DPF = D:/Protein_go_brrr/autodock/final/mut_Y35F/heme_O2/dock.dpf
DOCKED: USER  
DOCKED: USER    Estimated Free Energy of Binding    =   -5.70 kcal/mol  [=(1)+(2)+(3)-(4)]
DOCKED: USER    Estimated Inhibition Constant, Ki   =   66.32 uM (micromolar)  [Temperature = 298.15 K]
DOCKED: USER    
DOCKED: USER    (1) Final Intermolecular Energy     =   -8.68 kcal/mol
DOCKED: USER        vdW + Hbond + desolv Energy     =   -6.75 kcal/mol
DOCKED: USER        Electrostatic Energy            =   -1.94 kcal/mol
DOCKED: USER    (2) Final Total Internal Energy     =   -1.72 kcal/mol
DOCKED: USER    (3) Torsional Free Energy           =   +2.98 kcal/mol
DOCKED: USER    (4) Unbound System's Energy  [=(2)] =   -1.72 kcal/mol
DOCKED: USER    
DOCKED: USER    
DOCKED: USER    NEWDPF move heme_O2_opt.pdbqt
DOCKED: USER    NEWDPF about 8.287000 34.468000 -0.670000
DOCKED: USER    NEWDPF tran0 11.028784 13.184593 8.161509
DOCKED: USER    NEWDPF quaternion0 -0.383658 -0.671493 0.155179 0.614672
DOCKED: USER    NEWDPF axisangle0 -0.486393 -0.851304 0.196732 104.143752
DOCKED: USER    NEWDPF quat0 -0.486393 -0.851304 0.196732 104.143752
DOCKED: USER    NEWDPF dihe0 144.44 -124.94 78.14 122.82 -172.74 -147.05 -51.27 49.92 -163.96 177.19 
DOCKED: USER  keepresnum = 1 
DOCKED: USER  
DOCKED: REMARK  10 active torsions:
DOCKED: REMARK  status: ('A' for Active; 'I' for Inactive)
DOCKED: REMARK    1  A    between atoms: C_6  and  C_10 
DOCKED: REMARK    2  A    between atoms: C_10  and  C_11 
DOCKED: REMARK    3  A    between atoms: C_11  and  C_12 
DOCKED: REMARK    4  A    between atoms: C_12  and  O_14 
DOCKED: REMARK    5  A    between atoms: C_17  and  C_20 
DOCKED: REMARK    6  A    between atoms: C_24  and  C_27 
DOCKED: REMARK    7  A    between atoms: C_31  and  C_34 
DOCKED: REMARK    8  A    between atoms: C_34  and  C_35 
DOCKED: REMARK    9  A    between atoms: C_35  and  C_36 
DOCKED: REMARK   10  A    between atoms: C_36  and  O_38 
DOCKED: USER                              x       y       z     vdW  Elec       q    Type
DOCKED: USER                           _______ _______ _______ _____ _____    ______ ____
DOCKED: ROOT
DOCKED: ATOM      1  C   UNL d   1      10.795  13.518  10.243 -0.23 +0.02    +0.064 A 
DOCKED: ATOM      2  C   UNL d   1      11.547   9.585   7.688 -0.11 +0.01    +0.064 A 
DOCKED: ATOM      3  C   UNL d   1      11.505  12.119   3.605 -0.20 -0.01    +0.064 C 
DOCKED: ATOM      4  C   UNL d   1      11.208  16.235   6.258 -0.16 -0.01    +0.064 A 
DOCKED: ATOM      5  C   UNL d   1      11.005  12.242   9.882 -0.20 +0.02    +0.066 A 
DOCKED: ATOM      6  C   UNL d   1      11.062  11.172  10.780 -0.15 -0.01    -0.021 A 
DOCKED: ATOM      7  C   UNL d   1      11.323  10.039  10.046 -0.13 -0.01    -0.025 A 
DOCKED: ATOM      8  C   UNL d   1      11.370  10.440   8.714 -0.13 +0.01    +0.066 A 
DOCKED: ATOM      9  C   UNL d   1      11.541   8.661  10.630 -0.09 +0.02    +0.051 C 
DOCKED: ATOM     10  C   UNL d   1      11.583   9.943   6.270 -0.12 +0.01    +0.066 A 
DOCKED: ATOM     11  C   UNL d   1      11.605   8.998   5.238 -0.19 -0.00    -0.021 A 
DOCKED: ATOM     12  C   UNL d   1      11.575   9.709   4.052 -0.29 -0.00    +0.000 A 
DOCKED: ATOM     13  C   UNL d   1      11.548  11.078   4.436 -0.19 -0.00    +0.070 A 
DOCKED: ATOM     14  C   UNL d   1      11.627   7.480   5.377 -0.19 +0.01    +0.052 C 
DOCKED: ATOM     15  C   UNL d   1      11.511  13.519   3.953 -0.18 -0.01    +0.066 A 
DOCKED: ATOM     16  C   UNL d   1      11.631  14.562   3.034 -0.20 +0.00    -0.021 A 
DOCKED: ATOM     17  C   UNL d   1      11.550  15.745   3.768 -0.13 -0.00    +0.000 A 
DOCKED: ATOM     18  C   UNL d   1      11.383  15.331   5.097 -0.14 -0.01    +0.070 A 
DOCKED: ATOM     19  C   UNL d   1      11.865  14.337   1.562 -0.37 -0.02    +0.052 C 
DOCKED: ATOM     20  C   UNL d   1      11.089  15.872   7.550 -0.18 -0.01    +0.066 A 
DOCKED: ATOM     21  C   UNL d   1      10.909  16.769   8.599 -0.18 +0.00    -0.025 A 
DOCKED: ATOM     22  C   UNL d   1      10.762  16.011   9.739 -0.21 -0.00    -0.021 A 
DOCKED: ATOM     23  C   UNL d   1      10.876  14.674   9.344 -0.24 +0.01    +0.066 A 
DOCKED: ATOM     24  C   UNL d   1      10.882  18.273   8.518 -0.16 -0.00    +0.051 C 
DOCKED: ATOM     25  N   UNL d   1      11.239  11.806   8.619 -0.10 -0.04    -0.248 N 
DOCKED: ATOM     26  N   UNL d   1      11.557  11.212   5.787 +0.03 -0.01    -0.248 N 
DOCKED: ATOM     27  N   UNL d   1      11.437  13.978   5.199 -0.01 +0.02    -0.248 N 
DOCKED: ATOM     28  N   UNL d   1      11.120  14.596   8.019 -0.11 -0.01    -0.248 N 
DOCKED: ATOM     29 FE   UNL d   1      11.337  12.918   6.909 -0.04 +0.00    +0.000 Fe
DOCKED: ATOM     30  O   UNL d   1      12.699  12.292   7.330 -0.10 +0.00    +0.000 OA
DOCKED: ATOM     31  O   UNL d   1      12.658  13.759   6.757 -0.10 +0.00    +0.000 OA
DOCKED: ENDROOT
DOCKED: BRANCH   6  32
DOCKED: ATOM     32  C   UNL d   1      11.011  11.228  12.285 -0.15 +0.03    +0.052 C 
DOCKED: BRANCH  32  33
DOCKED: ATOM     33  C   UNL d   1      12.351  11.605  12.910 -0.06 +0.05    +0.115 C 
DOCKED: BRANCH  33  34
DOCKED: ATOM     34  C   UNL d   1      12.237  12.778  13.852 -0.08 +0.10    +0.139 C 
DOCKED: ATOM     35  O   UNL d   1      11.241  12.899  14.547 -0.22 -1.00    -0.650 OA
DOCKED: BRANCH  34  36
DOCKED: ATOM     36  O   UNL d   1      13.202  13.718  13.925 +0.00 -0.37    -0.776 OA
DOCKED: ATOM     37  H   UNL d   1      12.999  14.648  14.082 +0.01 +0.09    +0.167 HD
DOCKED: ENDBRANCH  34  36
DOCKED: ENDBRANCH  33  34
DOCKED: ENDBRANCH  32  33
DOCKED: ENDBRANCH   6  32
DOCKED: BRANCH  22  38
DOCKED: ATOM     38  C   UNL d   1      10.587  16.550  11.135 -0.17 +0.02    +0.052 C 
DOCKED: BRANCH  38  39
DOCKED: ATOM     39  C   UNL d   1      11.912  16.966  11.769 -0.09 +0.03    +0.115 C 
DOCKED: BRANCH  39  40
DOCKED: ATOM     40  C   UNL d   1      12.087  16.409  13.159 -0.09 +0.07    +0.139 C 
DOCKED: ATOM     41  O   UNL d   1      11.193  15.748  13.664 -0.30 -0.76    -0.650 OA
DOCKED: BRANCH  40  42
DOCKED: ATOM     42  O   UNL d   1      13.236  16.584  13.840 +0.02 -0.23    -0.776 OA
DOCKED: ATOM     43  H   UNL d   1      13.750  15.834  14.165 +0.01 +0.05    +0.167 HD
DOCKED: ENDBRANCH  40  42
DOCKED: ENDBRANCH  39  40
DOCKED: ENDBRANCH  38  39
DOCKED: ENDBRANCH  22  38
DOCKED: BRANCH  12  44
DOCKED: ATOM     44  C   UNL d   1      11.580   9.022   2.703 -0.37 -0.00    +0.004 C 
DOCKED: ATOM     45  C   UNL d   1      12.583   8.938   1.830 -0.28 -0.00    +0.012 C 
DOCKED: ENDBRANCH  12  44
DOCKED: BRANCH  17  46
DOCKED: ATOM     46  C   UNL d   1      11.672  17.183   3.340 -0.09 -0.00    +0.004 C 
DOCKED: ATOM     47  C   UNL d   1      10.740  18.144   3.388 -0.10 -0.00    +0.012 C 
DOCKED: ENDBRANCH  17  46
DOCKED: TORSDOF 10
DOCKED: TER
DOCKED: ENDMDL
________________________________________________________________________________


	BEGINNING GENETIC ALGORITHM DOCKING 31 of 100
Run: 31 Seed: 1855075895 2043721015 [ Run 31 of 100 GA/GALS ]
Beginning LAMARCKIAN GENETIC ALGORITHM (LGA), with a maximum of 25000000 energy evaluations.

Final-Value: -10.178


	FINAL GENETIC ALGORITHM DOCKED STATE
	_______________________________________________


Detailed state:  trans -4.447 -15.665 -16.306 quatxyzw -0.484867 -0.118769 -0.798506 0.336432 center 8.287 34.468 -0.670 ntor 10 53.1378 58.7635 -50.7886 -120.8208 8.7454 64.9833 -94.6588 44.6962 166.6266 -178.1236
State:	 -4.447 -15.665 -16.306  -0.515 -0.126 -0.848 140.681     53.14   58.76  -50.79 -120.82    8.75   64.98  -94.66   44.70  166.63 -178.12

DOCKED: MODEL       31
DOCKED: USER    Run = 31
DOCKED: USER    DPF = D:/Protein_go_brrr/autodock/final/mut_Y35F/heme_O2/dock.dpf
DOCKED: USER  
DOCKED: USER    Estimated Free Energy of Binding    =   -5.70 kcal/mol  [=(1)+(2)+(3)-(4)]
DOCKED: USER    Estimated Inhibition Constant, Ki   =   66.07 uM (micromolar)  [Temperature = 298.15 K]
DOCKED: USER    
DOCKED: USER    (1) Final Intermolecular Energy     =   -8.69 kcal/mol
DOCKED: USER        vdW + Hbond + desolv Energy     =   -6.28 kcal/mol
DOCKED: USER        Electrostatic Energy            =   -2.41 kcal/mol
DOCKED: USER    (2) Final Total Internal Energy     =   -1.49 kcal/mol
DOCKED: USER    (3) Torsional Free Energy           =   +2.98 kcal/mol
DOCKED: USER    (4) Unbound System's Energy  [=(2)] =   -1.49 kcal/mol
DOCKED: USER    
DOCKED: USER    
DOCKED: USER    NEWDPF move heme_O2_opt.pdbqt
DOCKED: USER    NEWDPF about 8.287000 34.468000 -0.670000
DOCKED: USER    NEWDPF tran0 -4.446572 -15.664907 -16.305746
DOCKED: USER    NEWDPF quaternion0 -0.484867 -0.118769 -0.798506 0.336432
DOCKED: USER    NEWDPF axisangle0 -0.514880 -0.126121 -0.847934 140.680763
DOCKED: USER    NEWDPF quat0 -0.514880 -0.126121 -0.847934 140.680763
DOCKED: USER    NEWDPF dihe0 53.14 58.76 -50.79 -120.82 8.75 64.98 -94.66 44.70 166.63 -178.12 
DOCKED: USER  keepresnum = 1 
DOCKED: USER  
DOCKED: REMARK  10 active torsions:
DOCKED: REMARK  status: ('A' for Active; 'I' for Inactive)
DOCKED: REMARK    1  A    between atoms: C_6  and  C_10 
DOCKED: REMARK    2  A    between atoms: C_10  and  C_11 
DOCKED: REMARK    3  A    between atoms: C_11  and  C_12 
DOCKED: REMARK    4  A    between atoms: C_12  and  O_14 
DOCKED: REMARK    5  A    between atoms: C_17  and  C_20 
DOCKED: REMARK    6  A    between atoms: C_24  and  C_27 
DOCKED: REMARK    7  A    between atoms: C_31  and  C_34 
DOCKED: REMARK    8  A    between atoms: C_34  and  C_35 
DOCKED: REMARK    9  A    between atoms: C_35  and  C_36 
DOCKED: REMARK   10  A    between atoms: C_36  and  O_38 
DOCKED: USER                              x       y       z     vdW  Elec       q    Type
DOCKED: USER                           _______ _______ _______ _____ _____    ______ ____
DOCKED: ROOT
DOCKED: ATOM      1  C   UNL d   1      -4.817 -17.224 -17.695 -0.06 +0.03    +0.064 A 
DOCKED: ATOM      2  C   UNL d   1      -0.855 -14.931 -16.427 -0.02 +0.00    +0.064 A 
DOCKED: ATOM      3  C   UNL d   1      -3.325 -12.168 -13.367 -0.25 -0.00    +0.064 C 
DOCKED: ATOM      4  C   UNL d   1      -7.328 -14.841 -14.311 -0.14 +0.01    +0.064 A 
DOCKED: ATOM      5  C   UNL d   1      -3.537 -16.827 -17.598 -0.06 +0.02    +0.066 A 
DOCKED: ATOM      6  C   UNL d   1      -2.491 -17.369 -18.350 -0.03 -0.01    -0.021 A 
DOCKED: ATOM      7  C   UNL d   1      -1.337 -16.736 -17.952 -0.02 -0.00    -0.025 A 
DOCKED: ATOM      8  C   UNL d   1      -1.717 -15.791 -17.003 -0.02 +0.01    +0.066 A 
DOCKED: ATOM      9  C   UNL d   1       0.051 -17.067 -18.458 -0.00 +0.01    +0.051 C 
DOCKED: ATOM     10  C   UNL d   1      -1.199 -13.904 -15.442 -0.06 +0.00    +0.066 A 
DOCKED: ATOM     11  C   UNL d   1      -0.296 -12.931 -14.998 -0.10 +0.00    -0.021 A 
DOCKED: ATOM     12  C   UNL d   1      -0.994 -12.114 -14.129 -0.21 -0.00    +0.000 A 
DOCKED: ATOM     13  C   UNL d   1      -2.310 -12.654 -14.081 -0.16 -0.00    +0.070 A 
DOCKED: ATOM     14  C   UNL d   1       1.164 -12.772 -15.407 -0.11 -0.00    +0.052 C 
DOCKED: ATOM     15  C   UNL d   1      -4.660 -12.705 -13.264 -0.19 -0.00    +0.066 A 
DOCKED: ATOM     16  C   UNL d   1      -5.630 -12.247 -12.373 -0.29 +0.00    -0.021 A 
DOCKED: ATOM     17  C   UNL d   1      -6.780 -12.995 -12.623 -0.30 -0.00    +0.000 A 
DOCKED: ATOM     18  C   UNL d   1      -6.422 -13.864 -13.664 -0.20 +0.00    +0.070 A 
DOCKED: ATOM     19  C   UNL d   1      -5.359 -11.187 -11.336 -0.46 -0.01    +0.052 C 
DOCKED: ATOM     20  C   UNL d   1      -7.005 -15.718 -15.282 -0.12 +0.01    +0.066 A 
DOCKED: ATOM     21  C   UNL d   1      -7.908 -16.603 -15.866 -0.10 -0.01    -0.025 A 
DOCKED: ATOM     22  C   UNL d   1      -7.216 -17.271 -16.851 -0.09 -0.01    -0.021 A 
DOCKED: ATOM     23  C   UNL d   1      -5.907 -16.780 -16.819 -0.09 +0.03    +0.066 A 
DOCKED: ATOM     24  C   UNL d   1      -9.356 -16.803 -15.500 -0.06 +0.01    +0.051 C 
DOCKED: ATOM     25  N   UNL d   1      -3.063 -15.893 -16.738 -0.03 -0.06    -0.248 N 
DOCKED: ATOM     26  N   UNL d   1      -2.424 -13.745 -14.880 -0.06 -0.02    -0.248 N 
DOCKED: ATOM     27  N   UNL d   1      -5.111 -13.725 -13.989 -0.13 -0.01    -0.248 N 
DOCKED: ATOM     28  N   UNL d   1      -5.772 -15.869 -15.834 -0.08 -0.07    -0.248 N 
DOCKED: ATOM     29 FE   UNL d   1      -4.112 -14.814 -15.358 -0.02 +0.00    +0.000 Fe
DOCKED: ATOM     30  O   UNL d   1      -3.114 -15.831 -14.733 -0.24 +0.00    +0.000 OA
DOCKED: ATOM     31  O   UNL d   1      -4.534 -15.630 -14.082 -0.30 +0.00    +0.000 OA
DOCKED: ENDROOT
DOCKED: BRANCH   6  32
DOCKED: ATOM     32  C   UNL d   1      -2.547 -18.532 -19.307 -0.02 +0.02    +0.052 C 
DOCKED: BRANCH  32  33
DOCKED: ATOM     33  C   UNL d   1      -1.832 -19.771 -18.776 -0.03 +0.04    +0.115 C 
DOCKED: BRANCH  33  34
DOCKED: ATOM     34  C   UNL d   1      -2.700 -20.583 -17.847 -0.02 +0.13    +0.139 C 
DOCKED: ATOM     35  O   UNL d   1      -2.203 -21.114 -16.867 -0.02 -0.69    -0.650 OA
DOCKED: BRANCH  34  36
DOCKED: ATOM     36  O   UNL d   1      -4.015 -20.761 -18.090 -0.44 -1.33    -0.776 OA
DOCKED: ATOM     37  H   UNL d   1      -4.338 -21.101 -18.933 +0.00 +0.16    +0.167 HD
DOCKED: ENDBRANCH  34  36
DOCKED: ENDBRANCH  33  34
DOCKED: ENDBRANCH  32  33
DOCKED: ENDBRANCH   6  32
DOCKED: BRANCH  22  38
DOCKED: ATOM     38  C   UNL d   1      -7.771 -18.365 -17.726 -0.07 +0.02    +0.052 C 
DOCKED: BRANCH  38  39
DOCKED: ATOM     39  C   UNL d   1      -7.887 -19.697 -16.990 -0.06 +0.09    +0.115 C 
DOCKED: BRANCH  39  40
DOCKED: ATOM     40  C   UNL d   1      -7.411 -20.860 -17.824 -0.04 +0.13    +0.139 C 
DOCKED: ATOM     41  O   UNL d   1      -7.899 -21.966 -17.656 -0.03 -0.49    -0.650 OA
DOCKED: BRANCH  40  42
DOCKED: ATOM     42  O   UNL d   1      -6.490 -20.691 -18.792 -0.07 -0.62    -0.776 OA
DOCKED: ATOM     43  H   UNL d   1      -5.601 -20.374 -18.593 -0.00 +0.19    +0.167 HD
DOCKED: ENDBRANCH  40  42
DOCKED: ENDBRANCH  39  40
DOCKED: ENDBRANCH  38  39
DOCKED: ENDBRANCH  22  38
DOCKED: BRANCH  12  44
DOCKED: ATOM     44  C   UNL d   1      -0.346 -10.929 -13.444 -0.30 -0.00    +0.004 C 
DOCKED: ATOM     45  C   UNL d   1      -0.744  -9.657 -13.459 -0.32 -0.00    +0.012 C 
DOCKED: ENDBRANCH  12  44
DOCKED: BRANCH  17  46
DOCKED: ATOM     46  C   UNL d   1      -8.124 -12.998 -11.945 -0.38 -0.00    +0.004 C 
DOCKED: ATOM     47  C   UNL d   1      -8.799 -14.042 -11.446 -0.45 -0.00    +0.012 C 
DOCKED: ENDBRANCH  17  46
DOCKED: TORSDOF 10
DOCKED: TER
DOCKED: ENDMDL
________________________________________________________________________________


	BEGINNING GENETIC ALGORITHM DOCKING 32 of 100
Run: 32 Seed: 290071961 580164657 [ Run 32 of 100 GA/GALS ]
Beginning LAMARCKIAN GENETIC ALGORITHM (LGA), with a maximum of 25000000 energy evaluations.

Final-Value: -9.819


	FINAL GENETIC ALGORITHM DOCKED STATE
	_______________________________________________


Detailed state:  trans -17.681 -2.298 -1.339 quatxyzw 0.504168 -0.043829 -0.265663 0.820559 center 8.287 34.468 -0.670 ntor 10 38.0077 73.4027 -115.5457 123.4696 -124.2667 138.1214 165.6975 146.7413 4.9728 16.4779
State:	-17.681  -2.298  -1.339   0.882 -0.077 -0.465 69.718     38.01   73.40 -115.55  123.47 -124.27  138.12  165.70  146.74    4.97   16.48

DOCKED: MODEL       32
DOCKED: USER    Run = 32
DOCKED: USER    DPF = D:/Protein_go_brrr/autodock/final/mut_Y35F/heme_O2/dock.dpf
DOCKED: USER  
DOCKED: USER    Estimated Free Energy of Binding    =   -5.23 kcal/mol  [=(1)+(2)+(3)-(4)]
DOCKED: USER    Estimated Inhibition Constant, Ki   =  146.93 uM (micromolar)  [Temperature = 298.15 K]
DOCKED: USER    
DOCKED: USER    (1) Final Intermolecular Energy     =   -8.21 kcal/mol
DOCKED: USER        vdW + Hbond + desolv Energy     =   -7.04 kcal/mol
DOCKED: USER        Electrostatic Energy            =   -1.17 kcal/mol
DOCKED: USER    (2) Final Total Internal Energy     =   -1.61 kcal/mol
DOCKED: USER    (3) Torsional Free Energy           =   +2.98 kcal/mol
DOCKED: USER    (4) Unbound System's Energy  [=(2)] =   -1.61 kcal/mol
DOCKED: USER    
DOCKED: USER    
DOCKED: USER    NEWDPF move heme_O2_opt.pdbqt
DOCKED: USER    NEWDPF about 8.287000 34.468000 -0.670000
DOCKED: USER    NEWDPF tran0 -17.681492 -2.298448 -1.338857
DOCKED: USER    NEWDPF quaternion0 0.504168 -0.043829 -0.265663 0.820559
DOCKED: USER    NEWDPF axisangle0 0.882088 -0.076683 -0.464802 69.718498
DOCKED: USER    NEWDPF quat0 0.882088 -0.076683 -0.464802 69.718498
DOCKED: USER    NEWDPF dihe0 38.01 73.40 -115.55 123.47 -124.27 138.12 165.70 146.74 4.97 16.48 
DOCKED: USER  keepresnum = 1 
DOCKED: USER  
DOCKED: REMARK  10 active torsions:
DOCKED: REMARK  status: ('A' for Active; 'I' for Inactive)
DOCKED: REMARK    1  A    between atoms: C_6  and  C_10 
DOCKED: REMARK    2  A    between atoms: C_10  and  C_11 
DOCKED: REMARK    3  A    between atoms: C_11  and  C_12 
DOCKED: REMARK    4  A    between atoms: C_12  and  O_14 
DOCKED: REMARK    5  A    between atoms: C_17  and  C_20 
DOCKED: REMARK    6  A    between atoms: C_24  and  C_27 
DOCKED: REMARK    7  A    between atoms: C_31  and  C_34 
DOCKED: REMARK    8  A    between atoms: C_34  and  C_35 
DOCKED: REMARK    9  A    between atoms: C_35  and  C_36 
DOCKED: REMARK   10  A    between atoms: C_36  and  O_38 
DOCKED: USER                              x       y       z     vdW  Elec       q    Type
DOCKED: USER                           _______ _______ _______ _____ _____    ______ ____
DOCKED: ROOT
DOCKED: ATOM      1  C   UNL d   1     -19.413  -3.501  -1.578 -0.07 +0.03    +0.064 A 
DOCKED: ATOM      2  C   UNL d   1     -17.825  -0.843   2.024 -0.22 +0.02    +0.064 A 
DOCKED: ATOM      3  C   UNL d   1     -13.909   0.377  -0.481 -0.25 +0.01    +0.064 C 
DOCKED: ATOM      4  C   UNL d   1     -15.765  -1.970  -4.369 -0.12 +0.01    +0.064 A 
DOCKED: ATOM      5  C   UNL d   1     -19.301  -2.876  -0.394 -0.08 +0.04    +0.066 A 
DOCKED: ATOM      6  C   UNL d   1     -20.233  -2.990   0.642 -0.09 -0.01    -0.021 A 
DOCKED: ATOM      7  C   UNL d   1     -19.796  -2.186   1.669 -0.13 -0.01    -0.025 A 
DOCKED: ATOM      8  C   UNL d   1     -18.585  -1.641   1.250 -0.17 +0.03    +0.066 A 
DOCKED: ATOM      9  C   UNL d   1     -20.545  -1.952   2.963 -0.13 +0.01    +0.051 C 
DOCKED: ATOM     10  C   UNL d   1     -16.536  -0.260   1.649 -0.22 +0.02    +0.066 A 
DOCKED: ATOM     11  C   UNL d   1     -15.711   0.427   2.547 -0.28 -0.01    -0.021 A 
DOCKED: ATOM     12  C   UNL d   1     -14.569   0.771   1.848 -0.29 +0.00    +0.000 A 
DOCKED: ATOM     13  C   UNL d   1     -14.771   0.274   0.530 -0.19 +0.02    +0.070 A 
DOCKED: ATOM     14  C   UNL d   1     -15.990   0.719   4.017 -0.33 +0.02    +0.052 C 
DOCKED: ATOM     15  C   UNL d   1     -14.090  -0.082  -1.837 -0.20 +0.01    +0.066 A 
DOCKED: ATOM     16  C   UNL d   1     -13.221   0.200  -2.890 -0.29 -0.00    -0.021 A 
DOCKED: ATOM     17  C   UNL d   1     -13.730  -0.458  -4.009 -0.23 +0.00    +0.000 A 
DOCKED: ATOM     18  C   UNL d   1     -14.887  -1.102  -3.549 -0.18 +0.01    +0.070 A 
DOCKED: ATOM     19  C   UNL d   1     -12.025   1.108  -2.748 -0.30 -0.00    +0.052 C 
DOCKED: ATOM     20  C   UNL d   1     -16.904  -2.568  -3.970 -0.10 +0.01    +0.066 A 
DOCKED: ATOM     21  C   UNL d   1     -17.681  -3.389  -4.783 -0.06 -0.00    -0.025 A 
DOCKED: ATOM     22  C   UNL d   1     -18.710  -3.856  -3.997 -0.05 -0.00    -0.021 A 
DOCKED: ATOM     23  C   UNL d   1     -18.532  -3.286  -2.732 -0.06 +0.02    +0.066 A 
DOCKED: ATOM     24  C   UNL d   1     -17.454  -3.709  -6.238 -0.05 +0.00    +0.051 C 
DOCKED: ATOM     25  N   UNL d   1     -18.314  -2.015  -0.046 -0.00 -0.14    -0.248 N 
DOCKED: ATOM     26  N   UNL d   1     -15.972  -0.348   0.417 -0.13 -0.07    -0.248 N 
DOCKED: ATOM     27  N   UNL d   1     -15.131  -0.802  -2.247 -0.12 -0.05    -0.248 N 
DOCKED: ATOM     28  N   UNL d   1     -17.460  -2.468  -2.733 -0.05 -0.09    -0.248 N 
DOCKED: ATOM     29 FE   UNL d   1     -16.719  -1.415  -1.171 -0.05 +0.00    +0.000 Fe
DOCKED: ATOM     30  O   UNL d   1     -17.748  -0.282  -0.884 -0.10 +0.00    +0.000 OA
DOCKED: ATOM     31  O   UNL d   1     -17.078  -0.387  -2.306 -0.09 +0.00    +0.000 OA
DOCKED: ENDROOT
DOCKED: BRANCH   6  32
DOCKED: ATOM     32  C   UNL d   1     -21.553  -3.715   0.620 -0.04 +0.01    +0.052 C 
DOCKED: BRANCH  32  33
DOCKED: ATOM     33  C   UNL d   1     -21.431  -5.179   1.033 -0.06 +0.02    +0.115 C 
DOCKED: BRANCH  33  34
DOCKED: ATOM     34  C   UNL d   1     -20.007  -5.674   0.984 -0.13 +0.08    +0.139 C 
DOCKED: ATOM     35  O   UNL d   1     -19.271  -5.490   1.940 -0.11 -0.48    -0.650 OA
DOCKED: BRANCH  34  36
DOCKED: ATOM     36  O   UNL d   1     -19.516  -6.295  -0.109 -0.20 -0.65    -0.776 OA
DOCKED: ATOM     37  H   UNL d   1     -19.748  -6.016  -1.002 +0.03 +0.10    +0.167 HD
DOCKED: ENDBRANCH  34  36
DOCKED: ENDBRANCH  33  34
DOCKED: ENDBRANCH  32  33
DOCKED: ENDBRANCH   6  32
DOCKED: BRANCH  22  38
DOCKED: ATOM     38  C   UNL d   1     -19.833  -4.748  -4.458 -0.02 +0.00    +0.052 C 
DOCKED: BRANCH  38  39
DOCKED: ATOM     39  C   UNL d   1     -19.852  -6.087  -3.724 -0.03 +0.01    +0.115 C 
DOCKED: BRANCH  39  40
DOCKED: ATOM     40  C   UNL d   1     -18.467  -6.580  -3.388 -0.12 +0.01    +0.139 C 
DOCKED: ATOM     41  O   UNL d   1     -17.776  -7.086  -4.258 +0.03 +0.02    -0.650 OA
DOCKED: BRANCH  40  42
DOCKED: ATOM     42  O   UNL d   1     -17.955  -6.426  -2.152 -0.15 -0.17    -0.776 OA
DOCKED: ATOM     43  H   UNL d   1     -18.232  -6.987  -1.417 -0.27 -0.01    +0.167 HD
DOCKED: ENDBRANCH  40  42
DOCKED: ENDBRANCH  39  40
DOCKED: ENDBRANCH  38  39
DOCKED: ENDBRANCH  22  38
DOCKED: BRANCH  12  44
DOCKED: ATOM     44  C   UNL d   1     -13.428   1.527   2.495 -0.43 +0.00    +0.004 C 
DOCKED: ATOM     45  C   UNL d   1     -12.689   1.156   3.540 -0.52 +0.00    +0.012 C 
DOCKED: ENDBRANCH  12  44
DOCKED: BRANCH  17  46
DOCKED: ATOM     46  C   UNL d   1     -13.263  -0.479  -5.440 -0.19 +0.00    +0.004 C 
DOCKED: ATOM     47  C   UNL d   1     -12.821  -1.524  -6.152 -0.19 +0.00    +0.012 C 
DOCKED: ENDBRANCH  17  46
DOCKED: TORSDOF 10
DOCKED: TER
DOCKED: ENDMDL
________________________________________________________________________________


	BEGINNING GENETIC ALGORITHM DOCKING 33 of 100
Run: 33 Seed: 1318903099 180170567 [ Run 33 of 100 GA/GALS ]
Beginning LAMARCKIAN GENETIC ALGORITHM (LGA), with a maximum of 25000000 energy evaluations.

Final-Value: -11.032


	FINAL GENETIC ALGORITHM DOCKED STATE
	_______________________________________________


Detailed state:  trans 16.265 -0.046 5.687 quatxyzw 0.376773 0.274992 -0.231781 -0.853639 center 8.287 34.468 -0.670 ntor 10 43.0556 -83.0736 -49.2410 -119.0783 -100.1448 137.0098 -48.3077 -98.8301 -145.4902 -5.3619
State:	 16.265  -0.046   5.687   0.723  0.528 -0.445 -62.781     43.06  -83.07  -49.24 -119.08 -100.14  137.01  -48.31  -98.83 -145.49   -5.36

DOCKED: MODEL       33
DOCKED: USER    Run = 33
DOCKED: USER    DPF = D:/Protein_go_brrr/autodock/final/mut_Y35F/heme_O2/dock.dpf
DOCKED: USER  
DOCKED: USER    Estimated Free Energy of Binding    =   -6.18 kcal/mol  [=(1)+(2)+(3)-(4)]
DOCKED: USER    Estimated Inhibition Constant, Ki   =   29.32 uM (micromolar)  [Temperature = 298.15 K]
DOCKED: USER    
DOCKED: USER    (1) Final Intermolecular Energy     =   -9.17 kcal/mol
DOCKED: USER        vdW + Hbond + desolv Energy     =   -7.05 kcal/mol
DOCKED: USER        Electrostatic Energy            =   -2.12 kcal/mol
DOCKED: USER    (2) Final Total Internal Energy     =   -1.87 kcal/mol
DOCKED: USER    (3) Torsional Free Energy           =   +2.98 kcal/mol
DOCKED: USER    (4) Unbound System's Energy  [=(2)] =   -1.87 kcal/mol
DOCKED: USER    
DOCKED: USER    
DOCKED: USER    NEWDPF move heme_O2_opt.pdbqt
DOCKED: USER    NEWDPF about 8.287000 34.468000 -0.670000
DOCKED: USER    NEWDPF tran0 16.265101 -0.046374 5.686988
DOCKED: USER    NEWDPF quaternion0 0.376773 0.274992 -0.231781 -0.853639
DOCKED: USER    NEWDPF axisangle0 0.723359 0.527951 -0.444993 -62.780647
DOCKED: USER    NEWDPF quat0 0.723359 0.527951 -0.444993 -62.780647
DOCKED: USER    NEWDPF dihe0 43.06 -83.07 -49.24 -119.08 -100.14 137.01 -48.31 -98.83 -145.49 -5.36 
DOCKED: USER  keepresnum = 1 
DOCKED: USER  
DOCKED: REMARK  10 active torsions:
DOCKED: REMARK  status: ('A' for Active; 'I' for Inactive)
DOCKED: REMARK    1  A    between atoms: C_6  and  C_10 
DOCKED: REMARK    2  A    between atoms: C_10  and  C_11 
DOCKED: REMARK    3  A    between atoms: C_11  and  C_12 
DOCKED: REMARK    4  A    between atoms: C_12  and  O_14 
DOCKED: REMARK    5  A    between atoms: C_17  and  C_20 
DOCKED: REMARK    6  A    between atoms: C_24  and  C_27 
DOCKED: REMARK    7  A    between atoms: C_31  and  C_34 
DOCKED: REMARK    8  A    between atoms: C_34  and  C_35 
DOCKED: REMARK    9  A    between atoms: C_35  and  C_36 
DOCKED: REMARK   10  A    between atoms: C_36  and  O_38 
DOCKED: USER                              x       y       z     vdW  Elec       q    Type
DOCKED: USER                           _______ _______ _______ _____ _____    ______ ____
DOCKED: ROOT
DOCKED: ATOM      1  C   UNL d   1      15.006   1.289   6.750 -0.16 +0.02    +0.064 A 
DOCKED: ATOM      2  C   UNL d   1      15.326  -3.449   6.681 -0.15 +0.02    +0.064 A 
DOCKED: ATOM      3  C   UNL d   1      18.850  -3.256   3.420 -0.16 +0.01    +0.064 C 
DOCKED: ATOM      4  C   UNL d   1      18.858   1.632   3.837 -0.24 +0.02    +0.064 A 
DOCKED: ATOM      5  C   UNL d   1      14.807  -0.015   6.999 -0.16 +0.02    +0.066 A 
DOCKED: ATOM      6  C   UNL d   1      13.840  -0.505   7.881 -0.20 -0.01    -0.021 A 
DOCKED: ATOM      7  C   UNL d   1      13.960  -1.875   7.895 -0.18 -0.01    -0.025 A 
DOCKED: ATOM      8  C   UNL d   1      14.965  -2.187   6.983 -0.15 +0.01    +0.066 A 
DOCKED: ATOM      9  C   UNL d   1      13.155  -2.806   8.774 -0.17 +0.01    +0.051 C 
DOCKED: ATOM     10  C   UNL d   1      16.356  -3.839   5.717 -0.12 +0.01    +0.066 A 
DOCKED: ATOM     11  C   UNL d   1      16.577  -5.163   5.320 -0.11 -0.01    -0.021 A 
DOCKED: ATOM     12  C   UNL d   1      17.578  -5.126   4.367 -0.08 +0.00    +0.000 A 
DOCKED: ATOM     13  C   UNL d   1      17.927  -3.752   4.242 -0.10 +0.01    +0.070 A 
DOCKED: ATOM     14  C   UNL d   1      15.846  -6.407   5.810 -0.12 +0.03    +0.052 C 
DOCKED: ATOM     15  C   UNL d   1      19.257  -1.877   3.289 -0.19 +0.01    +0.066 A 
DOCKED: ATOM     16  C   UNL d   1      20.343  -1.442   2.530 -0.19 -0.00    -0.021 A 
DOCKED: ATOM     17  C   UNL d   1      20.366  -0.052   2.635 -0.26 +0.00    +0.000 A 
DOCKED: ATOM     18  C   UNL d   1      19.276   0.262   3.459 -0.25 +0.01    +0.070 A 
DOCKED: ATOM     19  C   UNL d   1      21.285  -2.386   1.825 -0.08 +0.01    +0.052 C 
DOCKED: ATOM     20  C   UNL d   1      17.845   1.966   4.661 -0.20 +0.02    +0.066 A 
DOCKED: ATOM     21  C   UNL d   1      17.487   3.276   4.966 -0.19 -0.01    -0.025 A 
DOCKED: ATOM     22  C   UNL d   1      16.374   3.198   5.773 -0.13 -0.01    -0.021 A 
DOCKED: ATOM     23  C   UNL d   1      16.104   1.837   5.946 -0.14 +0.02    +0.066 A 
DOCKED: ATOM     24  C   UNL d   1      18.174   4.539   4.513 -0.22 +0.03    +0.051 C 
DOCKED: ATOM     25  N   UNL d   1      15.530  -1.038   6.481 -0.07 -0.05    -0.248 N 
DOCKED: ATOM     26  N   UNL d   1      17.182  -2.977   5.071 -0.03 -0.04    -0.248 N 
DOCKED: ATOM     27  N   UNL d   1      18.661  -0.862   3.907 -0.13 -0.04    -0.248 N 
DOCKED: ATOM     28  N   UNL d   1      17.028   1.091   5.305 -0.08 -0.06    -0.248 N 
DOCKED: ATOM     29 FE   UNL d   1      17.107  -0.928   5.187 -0.04 +0.00    +0.000 Fe
DOCKED: ATOM     30  O   UNL d   1      17.494  -1.431   6.608 -0.09 +0.00    +0.000 OA
DOCKED: ATOM     31  O   UNL d   1      18.450  -0.441   5.843 -0.10 +0.00    +0.000 OA
DOCKED: ENDROOT
DOCKED: BRANCH   6  32
DOCKED: ATOM     32  C   UNL d   1      12.928   0.286   8.783 -0.16 +0.02    +0.052 C 
DOCKED: BRANCH  32  33
DOCKED: ATOM     33  C   UNL d   1      13.688   1.119   9.811 -0.10 +0.06    +0.115 C 
DOCKED: BRANCH  33  34
DOCKED: ATOM     34  C   UNL d   1      13.238   2.558   9.831 -0.07 +0.14    +0.139 C 
DOCKED: ATOM     35  O   UNL d   1      12.595   2.976  10.781 -0.41 -0.98    -0.650 OA
DOCKED: BRANCH  34  36
DOCKED: ATOM     36  O   UNL d   1      13.505   3.393   8.806 -0.23 -0.78    -0.776 OA
DOCKED: ATOM     37  H   UNL d   1      13.404   3.122   7.886 +0.04 +0.14    +0.167 HD
DOCKED: ENDBRANCH  34  36
DOCKED: ENDBRANCH  33  34
DOCKED: ENDBRANCH  32  33
DOCKED: ENDBRANCH   6  32
DOCKED: BRANCH  22  38
DOCKED: ATOM     38  C   UNL d   1      15.655   4.368   6.393 -0.11 +0.02    +0.052 C 
DOCKED: BRANCH  38  39
DOCKED: ATOM     39  C   UNL d   1      14.443   4.807   5.573 -0.22 +0.04    +0.115 C 
DOCKED: BRANCH  39  40
DOCKED: ATOM     40  C   UNL d   1      13.238   3.933   5.814 -0.03 +0.09    +0.139 C 
DOCKED: ATOM     41  O   UNL d   1      13.163   2.841   5.275 -0.36 -0.33    -0.650 OA
DOCKED: BRANCH  40  42
DOCKED: ATOM     42  O   UNL d   1      12.259   4.315   6.658 -0.37 -0.80    -0.776 OA
DOCKED: ATOM     43  H   UNL d   1      12.348   4.211   7.613 +0.03 +0.24    +0.167 HD
DOCKED: ENDBRANCH  40  42
DOCKED: ENDBRANCH  39  40
DOCKED: ENDBRANCH  38  39
DOCKED: ENDBRANCH  22  38
DOCKED: BRANCH  12  44
DOCKED: ATOM     44  C   UNL d   1      18.090  -6.380   3.689 -0.05 +0.00    +0.004 C 
DOCKED: ATOM     45  C   UNL d   1      18.185  -6.624   2.383 -0.06 +0.00    +0.012 C 
DOCKED: ENDBRANCH  12  44
DOCKED: BRANCH  17  46
DOCKED: ATOM     46  C   UNL d   1      21.332   0.965   2.087 -0.27 +0.00    +0.004 C 
DOCKED: ATOM     47  C   UNL d   1      22.002   1.914   2.754 -0.17 +0.00    +0.012 C 
DOCKED: ENDBRANCH  17  46
DOCKED: TORSDOF 10
DOCKED: TER
DOCKED: ENDMDL
________________________________________________________________________________


	BEGINNING GENETIC ALGORITHM DOCKING 34 of 100
Run: 34 Seed: 1246903118 519696393 [ Run 34 of 100 GA/GALS ]
Beginning LAMARCKIAN GENETIC ALGORITHM (LGA), with a maximum of 25000000 energy evaluations.

Final-Value: -9.814


	FINAL GENETIC ALGORITHM DOCKED STATE
	_______________________________________________


Detailed state:  trans -0.259 -8.887 -15.090 quatxyzw -0.101420 0.117626 0.723402 0.672732 center 8.287 34.468 -0.670 ntor 10 44.6510 102.2811 -45.3975 -104.5012 33.5396 -27.7459 -157.7169 107.1832 -175.1364 -177.6081
State:	 -0.259  -8.887 -15.090  -0.137  0.159  0.978 95.443     44.65  102.28  -45.40 -104.50   33.54  -27.75 -157.72  107.18 -175.14 -177.61

DOCKED: MODEL       34
DOCKED: USER    Run = 34
DOCKED: USER    DPF = D:/Protein_go_brrr/autodock/final/mut_Y35F/heme_O2/dock.dpf
DOCKED: USER  
DOCKED: USER    Estimated Free Energy of Binding    =   -4.75 kcal/mol  [=(1)+(2)+(3)-(4)]
DOCKED: USER    Estimated Inhibition Constant, Ki   =  329.73 uM (micromolar)  [Temperature = 298.15 K]
DOCKED: USER    
DOCKED: USER    (1) Final Intermolecular Energy     =   -7.73 kcal/mol
DOCKED: USER        vdW + Hbond + desolv Energy     =   -6.49 kcal/mol
DOCKED: USER        Electrostatic Energy            =   -1.24 kcal/mol
DOCKED: USER    (2) Final Total Internal Energy     =   -2.08 kcal/mol
DOCKED: USER    (3) Torsional Free Energy           =   +2.98 kcal/mol
DOCKED: USER    (4) Unbound System's Energy  [=(2)] =   -2.08 kcal/mol
DOCKED: USER    
DOCKED: USER    
DOCKED: USER    NEWDPF move heme_O2_opt.pdbqt
DOCKED: USER    NEWDPF about 8.287000 34.468000 -0.670000
DOCKED: USER    NEWDPF tran0 -0.258668 -8.887259 -15.089647
DOCKED: USER    NEWDPF quaternion0 -0.101420 0.117626 0.723402 0.672732
DOCKED: USER    NEWDPF axisangle0 -0.137076 0.158978 0.977720 95.443463
DOCKED: USER    NEWDPF quat0 -0.137076 0.158978 0.977720 95.443463
DOCKED: USER    NEWDPF dihe0 44.65 102.28 -45.40 -104.50 33.54 -27.75 -157.72 107.18 -175.14 -177.61 
DOCKED: USER  keepresnum = 1 
DOCKED: USER  
DOCKED: REMARK  10 active torsions:
DOCKED: REMARK  status: ('A' for Active; 'I' for Inactive)
DOCKED: REMARK    1  A    between atoms: C_6  and  C_10 
DOCKED: REMARK    2  A    between atoms: C_10  and  C_11 
DOCKED: REMARK    3  A    between atoms: C_11  and  C_12 
DOCKED: REMARK    4  A    between atoms: C_12  and  O_14 
DOCKED: REMARK    5  A    between atoms: C_17  and  C_20 
DOCKED: REMARK    6  A    between atoms: C_24  and  C_27 
DOCKED: REMARK    7  A    between atoms: C_31  and  C_34 
DOCKED: REMARK    8  A    between atoms: C_34  and  C_35 
DOCKED: REMARK    9  A    between atoms: C_35  and  C_36 
DOCKED: REMARK   10  A    between atoms: C_36  and  O_38 
DOCKED: USER                              x       y       z     vdW  Elec       q    Type
DOCKED: USER                           _______ _______ _______ _____ _____    ______ ____
DOCKED: ROOT
DOCKED: ATOM      1  C   UNL d   1       0.696  -7.090 -15.688 -0.05 +0.01    +0.064 A 
DOCKED: ATOM      2  C   UNL d   1      -3.111  -7.953 -12.983 -0.12 -0.00    +0.064 A 
DOCKED: ATOM      3  C   UNL d   1      -2.636 -12.687 -13.663 -0.21 -0.00    +0.064 C 
DOCKED: ATOM      4  C   UNL d   1       1.562 -11.839 -16.055 -0.08 +0.00    +0.064 A 
DOCKED: ATOM      5  C   UNL d   1      -0.377  -6.939 -14.895 -0.07 +0.01    +0.066 A 
DOCKED: ATOM      6  C   UNL d   1      -0.873  -5.701 -14.477 -0.08 -0.00    -0.021 A 
DOCKED: ATOM      7  C   UNL d   1      -1.950  -5.951 -13.658 -0.15 -0.00    -0.025 A 
DOCKED: ATOM      8  C   UNL d   1      -2.111  -7.334 -13.638 -0.15 +0.00    +0.066 A 
DOCKED: ATOM      9  C   UNL d   1      -2.743  -4.892 -12.924 -0.15 +0.00    +0.051 C 
DOCKED: ATOM     10  C   UNL d   1      -3.345  -9.398 -12.943 -0.13 -0.00    +0.066 A 
DOCKED: ATOM     11  C   UNL d   1      -4.490  -9.977 -12.385 -0.12 +0.00    -0.021 A 
DOCKED: ATOM     12  C   UNL d   1      -4.380 -11.340 -12.587 -0.30 -0.00    +0.000 A 
DOCKED: ATOM     13  C   UNL d   1      -3.141 -11.521 -13.262 -0.22 -0.01    +0.070 A 
DOCKED: ATOM     14  C   UNL d   1      -5.653  -9.258 -11.711 -0.20 -0.01    +0.052 C 
DOCKED: ATOM     15  C   UNL d   1      -1.370 -12.915 -14.316 -0.15 -0.00    +0.066 A 
DOCKED: ATOM     16  C   UNL d   1      -0.823 -14.174 -14.563 -0.12 -0.00    -0.021 A 
DOCKED: ATOM     17  C   UNL d   1       0.375 -13.957 -15.244 -0.07 -0.00    +0.000 A 
DOCKED: ATOM     18  C   UNL d   1       0.469 -12.564 -15.365 -0.08 -0.00    +0.070 A 
DOCKED: ATOM     19  C   UNL d   1      -1.458 -15.455 -14.083 -0.17 +0.01    +0.052 C 
DOCKED: ATOM     20  C   UNL d   1       1.706 -10.503 -16.152 -0.08 +0.00    +0.066 A 
DOCKED: ATOM     21  C   UNL d   1       2.748  -9.877 -16.831 -0.07 -0.00    -0.025 A 
DOCKED: ATOM     22  C   UNL d   1       2.503  -8.525 -16.760 -0.06 -0.00    -0.021 A 
DOCKED: ATOM     23  C   UNL d   1       1.325  -8.373 -16.022 -0.07 +0.01    +0.066 A 
DOCKED: ATOM     24  C   UNL d   1       3.920 -10.537 -17.510 -0.05 -0.00    +0.051 C 
DOCKED: ATOM     25  N   UNL d   1      -1.103  -7.944 -14.347 -0.06 -0.01    -0.248 N 
DOCKED: ATOM     26  N   UNL d   1      -2.516 -10.334 -13.470 -0.14 +0.02    -0.248 N 
DOCKED: ATOM     27  N   UNL d   1      -0.559 -11.945 -14.731 -0.07 +0.00    -0.248 N 
DOCKED: ATOM     28  N   UNL d   1       0.868  -9.576 -15.616 -0.07 -0.02    -0.248 N 
DOCKED: ATOM     29 FE   UNL d   1      -0.810  -9.955 -14.551 -0.03 +0.00    +0.000 Fe
DOCKED: ATOM     30  O   UNL d   1      -0.542  -9.424 -13.113 -0.35 +0.00    +0.000 OA
DOCKED: ATOM     31  O   UNL d   1       0.406 -10.520 -13.730 -0.66 +0.00    +0.000 OA
DOCKED: ENDROOT
DOCKED: BRANCH   6  32
DOCKED: ATOM     32  C   UNL d   1      -0.280  -4.338 -14.723 -0.08 +0.01    +0.052 C 
DOCKED: BRANCH  32  33
DOCKED: ATOM     33  C   UNL d   1       0.672  -3.898 -13.615 -0.17 +0.04    +0.115 C 
DOCKED: BRANCH  33  34
DOCKED: ATOM     34  C   UNL d   1       1.181  -5.060 -12.798 -0.20 +0.07    +0.139 C 
DOCKED: ATOM     35  O   UNL d   1       0.917  -5.122 -11.608 +0.13 -0.24    -0.650 OA
DOCKED: BRANCH  34  36
DOCKED: ATOM     36  O   UNL d   1       1.948  -6.023 -13.348 -0.25 -0.48    -0.776 OA
DOCKED: ATOM     37  H   UNL d   1       2.686  -5.817 -13.934 +0.07 +0.16    +0.167 HD
DOCKED: ENDBRANCH  34  36
DOCKED: ENDBRANCH  33  34
DOCKED: ENDBRANCH  32  33
DOCKED: ENDBRANCH   6  32
DOCKED: BRANCH  22  38
DOCKED: ATOM     38  C   UNL d   1       3.389  -7.441 -17.317 -0.02 +0.00    +0.052 C 
DOCKED: BRANCH  38  39
DOCKED: ATOM     39  C   UNL d   1       4.632  -7.208 -16.461 -0.06 +0.02    +0.115 C 
DOCKED: BRANCH  39  40
DOCKED: ATOM     40  C   UNL d   1       4.318  -6.481 -15.177 -0.12 +0.06    +0.139 C 
DOCKED: ATOM     41  O   UNL d   1       4.511  -7.033 -14.105 -0.59 -0.52    -0.650 OA
DOCKED: BRANCH  40  42
DOCKED: ATOM     42  O   UNL d   1       3.876  -5.209 -15.188 -0.18 -0.46    -0.776 OA
DOCKED: ATOM     43  H   UNL d   1       2.951  -4.995 -15.014 +0.03 +0.10    +0.167 HD
DOCKED: ENDBRANCH  40  42
DOCKED: ENDBRANCH  39  40
DOCKED: ENDBRANCH  38  39
DOCKED: ENDBRANCH  22  38
DOCKED: BRANCH  12  44
DOCKED: ATOM     44  C   UNL d   1      -5.446 -12.310 -12.122 -0.36 -0.00    +0.004 C 
DOCKED: ATOM     45  C   UNL d   1      -6.035 -13.278 -12.824 -0.32 -0.00    +0.012 C 
DOCKED: ENDBRANCH  12  44
DOCKED: BRANCH  17  46
DOCKED: ATOM     46  C   UNL d   1       1.429 -14.921 -15.721 -0.04 -0.00    +0.004 C 
DOCKED: ATOM     47  C   UNL d   1       2.680 -15.071 -15.268 -0.04 -0.00    +0.012 C 
DOCKED: ENDBRANCH  17  46
DOCKED: TORSDOF 10
DOCKED: TER
DOCKED: ENDMDL
________________________________________________________________________________


	BEGINNING GENETIC ALGORITHM DOCKING 35 of 100
Run: 35 Seed: 1672552832 13124915 [ Run 35 of 100 GA/GALS ]
Beginning LAMARCKIAN GENETIC ALGORITHM (LGA), with a maximum of 25000000 energy evaluations.

Final-Value: -11.774


	FINAL GENETIC ALGORITHM DOCKED STATE
	_______________________________________________


Detailed state:  trans 13.797 11.273 4.622 quatxyzw -0.766285 -0.555236 0.302349 -0.114477 center 8.287 34.468 -0.670 ntor 10 29.6703 73.1671 59.5376 -101.6826 160.9854 -101.2665 -64.9310 -102.4963 -2.0338 152.6399
State:	 13.797  11.273   4.622  -0.771 -0.559  0.304 -166.853     29.67   73.17   59.54 -101.68  160.99 -101.27  -64.93 -102.50   -2.03  152.64

DOCKED: MODEL       35
DOCKED: USER    Run = 35
DOCKED: USER    DPF = D:/Protein_go_brrr/autodock/final/mut_Y35F/heme_O2/dock.dpf
DOCKED: USER  
DOCKED: USER    Estimated Free Energy of Binding    =   -7.99 kcal/mol  [=(1)+(2)+(3)-(4)]
DOCKED: USER    Estimated Inhibition Constant, Ki   =    1.38 uM (micromolar)  [Temperature = 298.15 K]
DOCKED: USER    
DOCKED: USER    (1) Final Intermolecular Energy     =  -10.98 kcal/mol
DOCKED: USER        vdW + Hbond + desolv Energy     =   -8.07 kcal/mol
DOCKED: USER        Electrostatic Energy            =   -2.91 kcal/mol
DOCKED: USER    (2) Final Total Internal Energy     =   -0.80 kcal/mol
DOCKED: USER    (3) Torsional Free Energy           =   +2.98 kcal/mol
DOCKED: USER    (4) Unbound System's Energy  [=(2)] =   -0.80 kcal/mol
DOCKED: USER    
DOCKED: USER    
DOCKED: USER    NEWDPF move heme_O2_opt.pdbqt
DOCKED: USER    NEWDPF about 8.287000 34.468000 -0.670000
DOCKED: USER    NEWDPF tran0 13.797252 11.272693 4.622177
DOCKED: USER    NEWDPF quaternion0 -0.766285 -0.555236 0.302349 -0.114477
DOCKED: USER    NEWDPF axisangle0 -0.771356 -0.558911 0.304350 -166.853090
DOCKED: USER    NEWDPF quat0 -0.771356 -0.558911 0.304350 -166.853090
DOCKED: USER    NEWDPF dihe0 29.67 73.17 59.54 -101.68 160.99 -101.27 -64.93 -102.50 -2.03 152.64 
DOCKED: USER  keepresnum = 1 
DOCKED: USER  
DOCKED: REMARK  10 active torsions:
DOCKED: REMARK  status: ('A' for Active; 'I' for Inactive)
DOCKED: REMARK    1  A    between atoms: C_6  and  C_10 
DOCKED: REMARK    2  A    between atoms: C_10  and  C_11 
DOCKED: REMARK    3  A    between atoms: C_11  and  C_12 
DOCKED: REMARK    4  A    between atoms: C_12  and  O_14 
DOCKED: REMARK    5  A    between atoms: C_17  and  C_20 
DOCKED: REMARK    6  A    between atoms: C_24  and  C_27 
DOCKED: REMARK    7  A    between atoms: C_31  and  C_34 
DOCKED: REMARK    8  A    between atoms: C_34  and  C_35 
DOCKED: REMARK    9  A    between atoms: C_35  and  C_36 
DOCKED: REMARK   10  A    between atoms: C_36  and  O_38 
DOCKED: USER                              x       y       z     vdW  Elec       q    Type
DOCKED: USER                           _______ _______ _______ _____ _____    ______ ____
DOCKED: ROOT
DOCKED: ATOM      1  C   UNL d   1      14.365   9.465   5.576 -0.10 +0.01    +0.064 A 
DOCKED: ATOM      2  C   UNL d   1      10.280  10.926   3.643 -0.16 -0.01    +0.064 A 
DOCKED: ATOM      3  C   UNL d   1      12.219  15.182   2.536 -0.18 -0.02    +0.064 C 
DOCKED: ATOM      4  C   UNL d   1      16.563  13.516   4.093 -0.07 +0.00    +0.064 A 
DOCKED: ATOM      5  C   UNL d   1      13.096   9.515   5.139 -0.13 +0.01    +0.066 A 
DOCKED: ATOM      6  C   UNL d   1      12.175   8.474   5.290 -0.18 -0.00    -0.021 A 
DOCKED: ATOM      7  C   UNL d   1      11.005   8.879   4.693 -0.26 -0.00    -0.025 A 
DOCKED: ATOM      8  C   UNL d   1      11.229  10.175   4.235 -0.24 -0.00    +0.066 A 
DOCKED: ATOM      9  C   UNL d   1       9.761   8.028   4.558 -0.15 +0.01    +0.051 C 
DOCKED: ATOM     10  C   UNL d   1      10.449  12.299   3.163 -0.16 -0.01    +0.066 A 
DOCKED: ATOM     11  C   UNL d   1       9.389  13.089   2.705 -0.42 +0.00    -0.021 A 
DOCKED: ATOM     12  C   UNL d   1       9.925  14.326   2.398 -0.42 -0.00    +0.000 A 
DOCKED: ATOM     13  C   UNL d   1      11.315  14.214   2.681 -0.24 -0.02    +0.070 A 
DOCKED: ATOM     14  C   UNL d   1       7.922  12.691   2.592 -0.32 -0.00    +0.052 C 
DOCKED: ATOM     15  C   UNL d   1      13.639  15.098   2.778 -0.10 -0.02    +0.066 A 
DOCKED: ATOM     16  C   UNL d   1      14.557  16.095   2.452 -0.10 +0.01    -0.021 A 
DOCKED: ATOM     17  C   UNL d   1      15.803  15.642   2.885 -0.09 -0.00    +0.000 A 
DOCKED: ATOM     18  C   UNL d   1      15.548  14.386   3.453 -0.09 -0.01    +0.070 A 
DOCKED: ATOM     19  C   UNL d   1      14.176  17.354   1.713 -0.09 -0.04    +0.052 C 
DOCKED: ATOM     20  C   UNL d   1      16.360  12.288   4.608 +0.02 +0.01    +0.066 A 
DOCKED: ATOM     21  C   UNL d   1      17.352  11.523   5.215 -0.04 -0.01    -0.025 A 
DOCKED: ATOM     22  C   UNL d   1      16.739  10.377   5.668 -0.03 -0.01    -0.021 A 
DOCKED: ATOM     23  C   UNL d   1      15.392  10.477   5.303 +0.01 +0.02    +0.066 A 
DOCKED: ATOM     24  C   UNL d   1      18.813  11.866   5.352 -0.07 +0.01    +0.051 C 
DOCKED: ATOM     25  N   UNL d   1      12.537  10.541   4.452 -0.10 -0.01    -0.248 N 
DOCKED: ATOM     26  N   UNL d   1      11.625  12.975   3.141 -0.15 +0.05    -0.248 N 
DOCKED: ATOM     27  N   UNL d   1      14.243  14.039   3.312 -0.06 +0.03    -0.248 N 
DOCKED: ATOM     28  N   UNL d   1      15.176  11.620   4.620 -0.07 -0.05    -0.248 N 
DOCKED: ATOM     29 FE   UNL d   1      13.415  12.295   3.885 -0.04 -0.00    +0.000 Fe
DOCKED: ATOM     30  O   UNL d   1      13.054  11.360   2.694 -0.40 -0.00    +0.000 OA
DOCKED: ATOM     31  O   UNL d   1      14.410  12.160   2.675 -0.43 +0.00    +0.000 OA
DOCKED: ENDROOT
DOCKED: BRANCH   6  32
DOCKED: ATOM     32  C   UNL d   1      12.421   7.098   5.852 -0.20 +0.02    +0.052 C 
DOCKED: BRANCH  32  33
DOCKED: ATOM     33  C   UNL d   1      12.391   7.066   7.377 -0.11 +0.06    +0.115 C 
DOCKED: BRANCH  33  34
DOCKED: ATOM     34  C   UNL d   1      11.217   6.284   7.913 -0.07 +0.17    +0.139 C 
DOCKED: ATOM     35  O   UNL d   1      10.537   5.617   7.149 -0.58 -0.88    -0.650 OA
DOCKED: BRANCH  34  36
DOCKED: ATOM     36  O   UNL d   1      10.881   6.326   9.219 +0.11 -1.34    -0.776 OA
DOCKED: ATOM     37  H   UNL d   1      11.047   7.103   9.764 +0.02 +0.16    +0.167 HD
DOCKED: ENDBRANCH  34  36
DOCKED: ENDBRANCH  33  34
DOCKED: ENDBRANCH  32  33
DOCKED: ENDBRANCH   6  32
DOCKED: BRANCH  22  38
DOCKED: ATOM     38  C   UNL d   1      17.426   9.225   6.354 -0.07 +0.01    +0.052 C 
DOCKED: BRANCH  38  39
DOCKED: ATOM     39  C   UNL d   1      17.580   8.011   5.440 -0.13 +0.04    +0.115 C 
DOCKED: BRANCH  39  40
DOCKED: ATOM     40  C   UNL d   1      18.690   8.184   4.434 -0.22 +0.09    +0.139 C 
DOCKED: ATOM     41  O   UNL d   1      19.758   8.660   4.785 -0.04 -0.40    -0.650 OA
DOCKED: BRANCH  40  42
DOCKED: ATOM     42  O   UNL d   1      18.544   7.775   3.159 -0.54 -0.92    -0.776 OA
DOCKED: ATOM     43  H   UNL d   1      18.014   8.275   2.526 -0.39 +0.11    +0.167 HD
DOCKED: ENDBRANCH  40  42
DOCKED: ENDBRANCH  39  40
DOCKED: ENDBRANCH  38  39
DOCKED: ENDBRANCH  22  38
DOCKED: BRANCH  12  44
DOCKED: ATOM     44  C   UNL d   1       9.074  15.464   1.874 -0.41 -0.00    +0.004 C 
DOCKED: ATOM     45  C   UNL d   1       9.245  16.167   0.755 -0.41 -0.00    +0.012 C 
DOCKED: ENDBRANCH  12  44
DOCKED: BRANCH  17  46
DOCKED: ATOM     46  C   UNL d   1      17.174  16.250   2.760 -0.07 -0.00    +0.004 C 
DOCKED: ATOM     47  C   UNL d   1      18.189  15.853   1.981 -0.10 -0.00    +0.012 C 
DOCKED: ENDBRANCH  17  46
DOCKED: TORSDOF 10
DOCKED: TER
DOCKED: ENDMDL
________________________________________________________________________________


	BEGINNING GENETIC ALGORITHM DOCKING 36 of 100
Run: 36 Seed: 306415644 1584755550 [ Run 36 of 100 GA/GALS ]
Beginning LAMARCKIAN GENETIC ALGORITHM (LGA), with a maximum of 25000000 energy evaluations.

Final-Value: -9.498


	FINAL GENETIC ALGORITHM DOCKED STATE
	_______________________________________________


Detailed state:  trans 12.430 15.658 8.843 quatxyzw 0.700588 -0.407369 -0.564698 -0.156020 center 8.287 34.468 -0.670 ntor 10 -151.2296 -139.6707 63.8472 -34.6812 15.3304 95.4178 -87.8374 95.4855 173.5093 -169.2355
State:	 12.430  15.658   8.843   0.709 -0.412 -0.572 -162.048   -151.23 -139.67   63.85  -34.68   15.33   95.42  -87.84   95.49  173.51 -169.24

DOCKED: MODEL       36
DOCKED: USER    Run = 36
DOCKED: USER    DPF = D:/Protein_go_brrr/autodock/final/mut_Y35F/heme_O2/dock.dpf
DOCKED: USER  
DOCKED: USER    Estimated Free Energy of Binding    =   -4.00 kcal/mol  [=(1)+(2)+(3)-(4)]
DOCKED: USER    Estimated Inhibition Constant, Ki   =    1.17 mM (millimolar)  [Temperature = 298.15 K]
DOCKED: USER    
DOCKED: USER    (1) Final Intermolecular Energy     =   -6.99 kcal/mol
DOCKED: USER        vdW + Hbond + desolv Energy     =   -5.15 kcal/mol
DOCKED: USER        Electrostatic Energy            =   -1.83 kcal/mol
DOCKED: USER    (2) Final Total Internal Energy     =   -2.51 kcal/mol
DOCKED: USER    (3) Torsional Free Energy           =   +2.98 kcal/mol
DOCKED: USER    (4) Unbound System's Energy  [=(2)] =   -2.51 kcal/mol
DOCKED: USER    
DOCKED: USER    
DOCKED: USER    NEWDPF move heme_O2_opt.pdbqt
DOCKED: USER    NEWDPF about 8.287000 34.468000 -0.670000
DOCKED: USER    NEWDPF tran0 12.429522 15.657793 8.842997
DOCKED: USER    NEWDPF quaternion0 0.700588 -0.407369 -0.564698 -0.156020
DOCKED: USER    NEWDPF axisangle0 0.709274 -0.412420 -0.571699 -162.048076
DOCKED: USER    NEWDPF quat0 0.709274 -0.412420 -0.571699 -162.048076
DOCKED: USER    NEWDPF dihe0 -151.23 -139.67 63.85 -34.68 15.33 95.42 -87.84 95.49 173.51 -169.24 
DOCKED: USER  keepresnum = 1 
DOCKED: USER  
DOCKED: REMARK  10 active torsions:
DOCKED: REMARK  status: ('A' for Active; 'I' for Inactive)
DOCKED: REMARK    1  A    between atoms: C_6  and  C_10 
DOCKED: REMARK    2  A    between atoms: C_10  and  C_11 
DOCKED: REMARK    3  A    between atoms: C_11  and  C_12 
DOCKED: REMARK    4  A    between atoms: C_12  and  O_14 
DOCKED: REMARK    5  A    between atoms: C_17  and  C_20 
DOCKED: REMARK    6  A    between atoms: C_24  and  C_27 
DOCKED: REMARK    7  A    between atoms: C_31  and  C_34 
DOCKED: REMARK    8  A    between atoms: C_34  and  C_35 
DOCKED: REMARK    9  A    between atoms: C_35  and  C_36 
DOCKED: REMARK   10  A    between atoms: C_36  and  O_38 
DOCKED: USER                              x       y       z     vdW  Elec       q    Type
DOCKED: USER                           _______ _______ _______ _____ _____    ______ ____
DOCKED: ROOT
DOCKED: ATOM      1  C   UNL d   1      12.870  16.489  10.744 -0.04 +0.01    +0.064 A 
DOCKED: ATOM      2  C   UNL d   1      10.577  18.195   6.951 -0.13 -0.01    +0.064 A 
DOCKED: ATOM      3  C   UNL d   1      11.372  14.124   4.524 -0.16 -0.01    +0.064 C 
DOCKED: ATOM      4  C   UNL d   1      13.316  12.178   8.586 -0.05 +0.01    +0.064 A 
DOCKED: ATOM      5  C   UNL d   1      12.180  17.284   9.911 -0.07 +0.00    +0.066 A 
DOCKED: ATOM      6  C   UNL d   1      11.769  18.582  10.229 -0.06 -0.00    -0.021 A 
DOCKED: ATOM      7  C   UNL d   1      11.068  19.061   9.148 -0.09 +0.00    -0.025 A 
DOCKED: ATOM      8  C   UNL d   1      11.111  18.061   8.180 -0.12 -0.01    +0.066 A 
DOCKED: ATOM      9  C   UNL d   1      10.377  20.406   9.091 -0.08 -0.00    +0.051 C 
DOCKED: ATOM     10  C   UNL d   1      10.611  17.191   5.887 -0.16 -0.02    +0.066 A 
DOCKED: ATOM     11  C   UNL d   1      10.187  17.442   4.578 -0.20 +0.00    -0.021 A 
DOCKED: ATOM     12  C   UNL d   1      10.424  16.286   3.858 -0.21 -0.00    +0.000 A 
DOCKED: ATOM     13  C   UNL d   1      10.982  15.370   4.793 -0.17 -0.01    +0.070 A 
DOCKED: ATOM     14  C   UNL d   1       9.604  18.740   4.029 -0.18 -0.01    +0.052 C 
DOCKED: ATOM     15  C   UNL d   1      11.908  13.155   5.449 -0.04 -0.00    +0.066 A 
DOCKED: ATOM     16  C   UNL d   1      12.144  11.815   5.142 -0.13 -0.00    -0.021 A 
DOCKED: ATOM     17  C   UNL d   1      12.698  11.240   6.285 -0.09 +0.00    +0.000 A 
DOCKED: ATOM     18  C   UNL d   1      12.760  12.286   7.216 -0.07 +0.01    +0.070 A 
DOCKED: ATOM     19  C   UNL d   1      11.773  11.197   3.817 -0.27 -0.01    +0.052 C 
DOCKED: ATOM     20  C   UNL d   1      13.352  13.150   9.519 -0.04 +0.01    +0.066 A 
DOCKED: ATOM     21  C   UNL d   1      13.905  12.994  10.787 -0.02 -0.00    -0.025 A 
DOCKED: ATOM     22  C   UNL d   1      13.811  14.220  11.406 -0.02 -0.00    -0.021 A 
DOCKED: ATOM     23  C   UNL d   1      13.186  15.077  10.496 -0.04 +0.01    +0.066 A 
DOCKED: ATOM     24  C   UNL d   1      14.490  11.738  11.379 -0.01 +0.01    +0.051 C 
DOCKED: ATOM     25  N   UNL d   1      11.740  16.942   8.676 -0.07 +0.00    -0.248 N 
DOCKED: ATOM     26  N   UNL d   1      11.087  15.927   6.026 -0.13 +0.04    -0.248 N 
DOCKED: ATOM     27  N   UNL d   1      12.208  13.421   6.717 -0.04 -0.01    -0.248 N 
DOCKED: ATOM     28  N   UNL d   1      12.868  14.411   9.367 -0.03 -0.03    -0.248 N 
DOCKED: ATOM     29 FE   UNL d   1      11.984  15.161   7.707 -0.03 +0.00    +0.000 Fe
DOCKED: ATOM     30  O   UNL d   1      10.509  15.465   8.100 -0.33 -0.00    +0.000 OA
DOCKED: ATOM     31  O   UNL d   1      11.070  14.000   8.245 -0.15 +0.00    +0.000 OA
DOCKED: ENDROOT
DOCKED: BRANCH   6  32
DOCKED: ATOM     32  C   UNL d   1      11.909  19.297  11.548 -0.03 +0.00    +0.052 C 
DOCKED: BRANCH  32  33
DOCKED: ATOM     33  C   UNL d   1      10.606  19.339  12.340 -0.06 +0.01    +0.115 C 
DOCKED: BRANCH  33  34
DOCKED: ATOM     34  C   UNL d   1      10.451  18.150  13.255 -0.11 +0.05    +0.139 C 
DOCKED: ATOM     35  O   UNL d   1       9.378  17.570  13.315 -0.00 -0.39    -0.650 OA
DOCKED: BRANCH  34  36
DOCKED: ATOM     36  O   UNL d   1      11.466  17.726  14.036 +0.01 -0.30    -0.776 OA
DOCKED: ATOM     37  H   UNL d   1      11.559  16.802  14.296 +0.01 +0.11    +0.167 HD
DOCKED: ENDBRANCH  34  36
DOCKED: ENDBRANCH  33  34
DOCKED: ENDBRANCH  32  33
DOCKED: ENDBRANCH   6  32
DOCKED: BRANCH  22  38
DOCKED: ATOM     38  C   UNL d   1      14.242  14.526  12.817 -0.01 +0.01    +0.052 C 
DOCKED: BRANCH  38  39
DOCKED: ATOM     39  C   UNL d   1      13.378  13.815  13.857 -0.03 +0.05    +0.115 C 
DOCKED: BRANCH  39  40
DOCKED: ATOM     40  C   UNL d   1      12.132  14.592  14.199 -0.02 +0.14    +0.139 C 
DOCKED: ATOM     41  O   UNL d   1      11.941  14.955  15.348 -0.30 -0.66    -0.650 OA
DOCKED: BRANCH  40  42
DOCKED: ATOM     42  O   UNL d   1      11.245  14.939  13.247 -0.44 -1.02    -0.776 OA
DOCKED: ATOM     43  H   UNL d   1      10.848  15.818  13.222 +0.01 +0.19    +0.167 HD
DOCKED: ENDBRANCH  40  42
DOCKED: ENDBRANCH  39  40
DOCKED: ENDBRANCH  38  39
DOCKED: ENDBRANCH  22  38
DOCKED: BRANCH  12  44
DOCKED: ATOM     44  C   UNL d   1      10.099  16.175   2.383 -0.29 -0.00    +0.004 C 
DOCKED: ATOM     45  C   UNL d   1       9.273  15.314   1.789 -0.45 -0.00    +0.012 C 
DOCKED: ENDBRANCH  12  44
DOCKED: BRANCH  17  46
DOCKED: ATOM     46  C   UNL d   1      13.104   9.820   6.580 -0.08 +0.00    +0.004 C 
DOCKED: ATOM     47  C   UNL d   1      12.459   8.691   6.260 -0.12 +0.00    +0.012 C 
DOCKED: ENDBRANCH  17  46
DOCKED: TORSDOF 10
DOCKED: TER
DOCKED: ENDMDL
________________________________________________________________________________


	BEGINNING GENETIC ALGORITHM DOCKING 37 of 100
Run: 37 Seed: 584656501 980742857 [ Run 37 of 100 GA/GALS ]
Beginning LAMARCKIAN GENETIC ALGORITHM (LGA), with a maximum of 25000000 energy evaluations.

Final-Value: -11.469


	FINAL GENETIC ALGORITHM DOCKED STATE
	_______________________________________________


Detailed state:  trans 13.953 11.473 4.626 quatxyzw -0.750797 -0.565850 0.325812 -0.099821 center 8.287 34.468 -0.670 ntor 10 26.4953 -102.6006 38.5699 -101.5796 180.0000 178.1792 -64.8959 102.1045 11.2442 -165.3320
State:	 13.953  11.473   4.626  -0.755 -0.569  0.327 -168.542     26.50 -102.60   38.57 -101.58  180.00  178.18  -64.90  102.10   11.24 -165.33

DOCKED: MODEL       37
DOCKED: USER    Run = 37
DOCKED: USER    DPF = D:/Protein_go_brrr/autodock/final/mut_Y35F/heme_O2/dock.dpf
DOCKED: USER  
DOCKED: USER    Estimated Free Energy of Binding    =   -7.76 kcal/mol  [=(1)+(2)+(3)-(4)]
DOCKED: USER    Estimated Inhibition Constant, Ki   =    2.04 uM (micromolar)  [Temperature = 298.15 K]
DOCKED: USER    
DOCKED: USER    (1) Final Intermolecular Energy     =  -10.75 kcal/mol
DOCKED: USER        vdW + Hbond + desolv Energy     =   -8.08 kcal/mol
DOCKED: USER        Electrostatic Energy            =   -2.67 kcal/mol
DOCKED: USER    (2) Final Total Internal Energy     =   -0.72 kcal/mol
DOCKED: USER    (3) Torsional Free Energy           =   +2.98 kcal/mol
DOCKED: USER    (4) Unbound System's Energy  [=(2)] =   -0.72 kcal/mol
DOCKED: USER    
DOCKED: USER    
DOCKED: USER    NEWDPF move heme_O2_opt.pdbqt
DOCKED: USER    NEWDPF about 8.287000 34.468000 -0.670000
DOCKED: USER    NEWDPF tran0 13.953151 11.472623 4.625845
DOCKED: USER    NEWDPF quaternion0 -0.750797 -0.565850 0.325812 -0.099821
DOCKED: USER    NEWDPF axisangle0 -0.754566 -0.568690 0.327447 -168.542260
DOCKED: USER    NEWDPF quat0 -0.754566 -0.568690 0.327447 -168.542260
DOCKED: USER    NEWDPF dihe0 26.50 -102.60 38.57 -101.58 180.00 178.18 -64.90 102.10 11.24 -165.33 
DOCKED: USER  keepresnum = 1 
DOCKED: USER  
DOCKED: REMARK  10 active torsions:
DOCKED: REMARK  status: ('A' for Active; 'I' for Inactive)
DOCKED: REMARK    1  A    between atoms: C_6  and  C_10 
DOCKED: REMARK    2  A    between atoms: C_10  and  C_11 
DOCKED: REMARK    3  A    between atoms: C_11  and  C_12 
DOCKED: REMARK    4  A    between atoms: C_12  and  O_14 
DOCKED: REMARK    5  A    between atoms: C_17  and  C_20 
DOCKED: REMARK    6  A    between atoms: C_24  and  C_27 
DOCKED: REMARK    7  A    between atoms: C_31  and  C_34 
DOCKED: REMARK    8  A    between atoms: C_34  and  C_35 
DOCKED: REMARK    9  A    between atoms: C_35  and  C_36 
DOCKED: REMARK   10  A    between atoms: C_36  and  O_38 
DOCKED: USER                              x       y       z     vdW  Elec       q    Type
DOCKED: USER                           _______ _______ _______ _____ _____    ______ ____
DOCKED: ROOT
DOCKED: ATOM      1  C   UNL d   1      14.632   9.733   5.631 -0.08 +0.01    +0.064 A 
DOCKED: ATOM      2  C   UNL d   1      10.433  10.923   3.758 -0.22 -0.01    +0.064 A 
DOCKED: ATOM      3  C   UNL d   1      12.135  15.219   2.438 -0.19 -0.02    +0.064 C 
DOCKED: ATOM      4  C   UNL d   1      16.593  13.821   3.936 -0.09 +0.00    +0.064 A 
DOCKED: ATOM      5  C   UNL d   1      13.351   9.705   5.228 -0.12 +0.01    +0.066 A 
DOCKED: ATOM      6  C   UNL d   1      12.485   8.629   5.444 -0.15 -0.00    -0.021 A 
DOCKED: ATOM      7  C   UNL d   1      11.282   8.955   4.864 -0.23 -0.00    -0.025 A 
DOCKED: ATOM      8  C   UNL d   1      11.431  10.241   4.351 -0.22 -0.00    +0.066 A 
DOCKED: ATOM      9  C   UNL d   1      10.078   8.041   4.796 -0.18 +0.01    +0.051 C 
DOCKED: ATOM     10  C   UNL d   1      10.523  12.282   3.221 -0.14 -0.01    +0.066 A 
DOCKED: ATOM     11  C   UNL d   1       9.415  13.003   2.763 -0.41 +0.00    -0.021 A 
DOCKED: ATOM     12  C   UNL d   1       9.882  14.251   2.395 -0.43 -0.00    +0.000 A 
DOCKED: ATOM     13  C   UNL d   1      11.283  14.215   2.644 -0.24 -0.02    +0.070 A 
DOCKED: ATOM     14  C   UNL d   1       7.966  12.531   2.705 -0.35 -0.00    +0.052 C 
DOCKED: ATOM     15  C   UNL d   1      13.564  15.211   2.643 -0.11 -0.02    +0.066 A 
DOCKED: ATOM     16  C   UNL d   1      14.424  16.237   2.254 -0.10 +0.01    -0.021 A 
DOCKED: ATOM     17  C   UNL d   1      15.701  15.860   2.670 -0.09 -0.00    +0.000 A 
DOCKED: ATOM     18  C   UNL d   1      15.521  14.617   3.292 -0.09 -0.01    +0.070 A 
DOCKED: ATOM     19  C   UNL d   1      13.964  17.447   1.479 -0.10 -0.04    +0.052 C 
DOCKED: ATOM     20  C   UNL d   1      16.463  12.606   4.503 -0.01 +0.01    +0.066 A 
DOCKED: ATOM     21  C   UNL d   1      17.506  11.913   5.110 -0.01 -0.01    -0.025 A 
DOCKED: ATOM     22  C   UNL d   1      16.960  10.758   5.623 -0.04 -0.01    -0.021 A 
DOCKED: ATOM     23  C   UNL d   1      15.602  10.780   5.292 -0.01 +0.02    +0.066 A 
DOCKED: ATOM     24  C   UNL d   1      18.952  12.330   5.194 -0.06 +0.01    +0.051 C 
DOCKED: ATOM     25  N   UNL d   1      12.726  10.676   4.518 -0.09 -0.01    -0.248 N 
DOCKED: ATOM     26  N   UNL d   1      11.664  13.012   3.142 -0.15 +0.05    -0.248 N 
DOCKED: ATOM     27  N   UNL d   1      14.231  14.204   3.200 -0.06 +0.03    -0.248 N 
DOCKED: ATOM     28  N   UNL d   1      15.313  11.884   4.572 -0.07 -0.05    -0.248 N 
DOCKED: ATOM     29 FE   UNL d   1      13.503  12.446   3.861 -0.04 -0.00    +0.000 Fe
DOCKED: ATOM     30  O   UNL d   1      13.157  11.449   2.717 -0.42 -0.00    +0.000 OA
DOCKED: ATOM     31  O   UNL d   1      14.473  12.311   2.630 -0.46 +0.00    +0.000 OA
DOCKED: ENDROOT
DOCKED: BRANCH   6  32
DOCKED: ATOM     32  C   UNL d   1      12.812   7.289   6.050 -0.16 +0.02    +0.052 C 
DOCKED: BRANCH  32  33
DOCKED: ATOM     33  C   UNL d   1      12.511   7.226   7.545 -0.09 +0.06    +0.115 C 
DOCKED: BRANCH  33  34
DOCKED: ATOM     34  C   UNL d   1      11.379   6.281   7.864 -0.10 +0.16    +0.139 C 
DOCKED: ATOM     35  O   UNL d   1      11.174   5.319   7.142 -0.52 -0.89    -0.650 OA
DOCKED: BRANCH  34  36
DOCKED: ATOM     36  O   UNL d   1      10.565   6.491   8.920 +0.01 -1.25    -0.776 OA
DOCKED: ATOM     37  H   UNL d   1      10.404   7.373   9.274 +0.03 +0.15    +0.167 HD
DOCKED: ENDBRANCH  34  36
DOCKED: ENDBRANCH  33  34
DOCKED: ENDBRANCH  32  33
DOCKED: ENDBRANCH   6  32
DOCKED: BRANCH  22  38
DOCKED: ATOM     38  C   UNL d   1      17.720   9.667   6.333 -0.06 +0.01    +0.052 C 
DOCKED: BRANCH  38  39
DOCKED: ATOM     39  C   UNL d   1      18.749   8.991   5.430 -0.11 +0.05    +0.115 C 
DOCKED: BRANCH  39  40
DOCKED: ATOM     40  C   UNL d   1      18.124   7.984   4.497 -0.23 +0.08    +0.139 C 
DOCKED: ATOM     41  O   UNL d   1      17.198   7.291   4.887 -0.01 -0.26    -0.650 OA
DOCKED: BRANCH  40  42
DOCKED: ATOM     42  O   UNL d   1      18.537   7.868   3.220 -0.52 -0.87    -0.776 OA
DOCKED: ATOM     43  H   UNL d   1      18.048   8.273   2.494 -0.39 +0.12    +0.167 HD
DOCKED: ENDBRANCH  40  42
DOCKED: ENDBRANCH  39  40
DOCKED: ENDBRANCH  38  39
DOCKED: ENDBRANCH  22  38
DOCKED: BRANCH  12  44
DOCKED: ATOM     44  C   UNL d   1       8.964  15.326   1.852 -0.37 -0.00    +0.004 C 
DOCKED: ATOM     45  C   UNL d   1       9.239  16.249   0.932 -0.41 -0.00    +0.012 C 
DOCKED: ENDBRANCH  12  44
DOCKED: BRANCH  17  46
DOCKED: ATOM     46  C   UNL d   1      17.038  16.527   2.484 -0.07 -0.00    +0.004 C 
DOCKED: ATOM     47  C   UNL d   1      18.049  16.149   1.692 -0.10 -0.00    +0.012 C 
DOCKED: ENDBRANCH  17  46
DOCKED: TORSDOF 10
DOCKED: TER
DOCKED: ENDMDL
________________________________________________________________________________


	BEGINNING GENETIC ALGORITHM DOCKING 38 of 100
Run: 38 Seed: 2092145251 1670342354 [ Run 38 of 100 GA/GALS ]
Beginning LAMARCKIAN GENETIC ALGORITHM (LGA), with a maximum of 25000000 energy evaluations.

Final-Value: -10.205


	FINAL GENETIC ALGORITHM DOCKED STATE
	_______________________________________________


Detailed state:  trans 2.350 -16.318 -9.408 quatxyzw -0.700036 0.169454 -0.692599 -0.039264 center 8.287 34.468 -0.670 ntor 10 -160.4077 -7.2077 -36.5816 0.9218 38.9958 -122.4345 -78.9377 -42.7536 -175.1106 115.8018
State:	  2.350 -16.318  -9.408  -0.701  0.170 -0.693 -175.500   -160.41   -7.21  -36.58    0.92   39.00 -122.43  -78.94  -42.75 -175.11  115.80

DOCKED: MODEL       38
DOCKED: USER    Run = 38
DOCKED: USER    DPF = D:/Protein_go_brrr/autodock/final/mut_Y35F/heme_O2/dock.dpf
DOCKED: USER  
DOCKED: USER    Estimated Free Energy of Binding    =   -5.12 kcal/mol  [=(1)+(2)+(3)-(4)]
DOCKED: USER    Estimated Inhibition Constant, Ki   =  175.14 uM (micromolar)  [Temperature = 298.15 K]
DOCKED: USER    
DOCKED: USER    (1) Final Intermolecular Energy     =   -8.11 kcal/mol
DOCKED: USER        vdW + Hbond + desolv Energy     =   -7.63 kcal/mol
DOCKED: USER        Electrostatic Energy            =   -0.48 kcal/mol
DOCKED: USER    (2) Final Total Internal Energy     =   -2.10 kcal/mol
DOCKED: USER    (3) Torsional Free Energy           =   +2.98 kcal/mol
DOCKED: USER    (4) Unbound System's Energy  [=(2)] =   -2.10 kcal/mol
DOCKED: USER    
DOCKED: USER    
DOCKED: USER    NEWDPF move heme_O2_opt.pdbqt
DOCKED: USER    NEWDPF about 8.287000 34.468000 -0.670000
DOCKED: USER    NEWDPF tran0 2.349994 -16.317766 -9.408385
DOCKED: USER    NEWDPF quaternion0 -0.700036 0.169454 -0.692599 -0.039264
DOCKED: USER    NEWDPF axisangle0 -0.700577 0.169584 -0.693133 -175.499560
DOCKED: USER    NEWDPF quat0 -0.700577 0.169584 -0.693133 -175.499560
DOCKED: USER    NEWDPF dihe0 -160.41 -7.21 -36.58 0.92 39.00 -122.43 -78.94 -42.75 -175.11 115.80 
DOCKED: USER  keepresnum = 1 
DOCKED: USER  
DOCKED: REMARK  10 active torsions:
DOCKED: REMARK  status: ('A' for Active; 'I' for Inactive)
DOCKED: REMARK    1  A    between atoms: C_6  and  C_10 
DOCKED: REMARK    2  A    between atoms: C_10  and  C_11 
DOCKED: REMARK    3  A    between atoms: C_11  and  C_12 
DOCKED: REMARK    4  A    between atoms: C_12  and  O_14 
DOCKED: REMARK    5  A    between atoms: C_17  and  C_20 
DOCKED: REMARK    6  A    between atoms: C_24  and  C_27 
DOCKED: REMARK    7  A    between atoms: C_31  and  C_34 
DOCKED: REMARK    8  A    between atoms: C_34  and  C_35 
DOCKED: REMARK    9  A    between atoms: C_35  and  C_36 
DOCKED: REMARK   10  A    between atoms: C_36  and  O_38 
DOCKED: USER                              x       y       z     vdW  Elec       q    Type
DOCKED: USER                           _______ _______ _______ _____ _____    ______ ____
DOCKED: ROOT
DOCKED: ATOM      1  C   UNL d   1       1.485 -16.194 -11.341 -0.24 -0.01    +0.064 A 
DOCKED: ATOM      2  C   UNL d   1       5.608 -14.641  -9.567 -0.20 -0.02    +0.064 A 
DOCKED: ATOM      3  C   UNL d   1       4.491 -16.361  -5.220 -0.22 -0.02    +0.064 C 
DOCKED: ATOM      4  C   UNL d   1       0.457 -18.383  -7.147 -0.23 -0.05    +0.064 A 
DOCKED: ATOM      5  C   UNL d   1       2.698 -15.633 -11.214 -0.21 -0.02    +0.066 A 
DOCKED: ATOM      6  C   UNL d   1       3.377 -14.991 -12.253 -0.17 +0.01    -0.021 A 
DOCKED: ATOM      7  C   UNL d   1       4.590 -14.579 -11.752 -0.19 +0.01    -0.025 A 
DOCKED: ATOM      8  C   UNL d   1       4.598 -14.938 -10.407 -0.21 -0.02    +0.066 A 
DOCKED: ATOM      9  C   UNL d   1       5.676 -13.904 -12.560 -0.14 -0.01    +0.051 C 
DOCKED: ATOM     10  C   UNL d   1       5.663 -14.971  -8.142 -0.21 -0.03    +0.066 A 
DOCKED: ATOM     11  C   UNL d   1       6.658 -14.497  -7.280 -0.17 +0.01    -0.021 A 
DOCKED: ATOM     12  C   UNL d   1       6.344 -14.967  -6.019 -0.20 -0.00    +0.000 A 
DOCKED: ATOM     13  C   UNL d   1       5.154 -15.729  -6.188 -0.20 -0.02    +0.070 A 
DOCKED: ATOM     14  C   UNL d   1       7.845 -13.610  -7.640 -0.17 -0.05    +0.052 C 
DOCKED: ATOM     15  C   UNL d   1       3.304 -17.171  -5.356 -0.21 -0.02    +0.066 A 
DOCKED: ATOM     16  C   UNL d   1       2.751 -17.940  -4.334 -0.20 +0.01    -0.021 A 
DOCKED: ATOM     17  C   UNL d   1       1.600 -18.527  -4.860 -0.25 -0.00    +0.000 A 
DOCKED: ATOM     18  C   UNL d   1       1.535 -18.063  -6.181 -0.26 -0.04    +0.070 A 
DOCKED: ATOM     19  C   UNL d   1       3.393 -18.090  -2.977 -0.22 -0.01    +0.052 C 
DOCKED: ATOM     20  C   UNL d   1       0.388 -17.990  -8.434 -0.26 -0.03    +0.066 A 
DOCKED: ATOM     21  C   UNL d   1      -0.663 -18.308  -9.290 -0.32 +0.01    -0.025 A 
DOCKED: ATOM     22  C   UNL d   1      -0.400 -17.671 -10.482 -0.28 +0.00    -0.021 A 
DOCKED: ATOM     23  C   UNL d   1       0.814 -16.999 -10.313 -0.27 -0.02    +0.066 A 
DOCKED: ATOM     24  C   UNL d   1      -1.854 -19.180  -8.988 -0.37 -0.02    +0.051 C 
DOCKED: ATOM     25  N   UNL d   1       3.460 -15.645 -10.092 -0.13 +0.10    -0.248 N 
DOCKED: ATOM     26  N   UNL d   1       4.750 -15.730  -7.484 -0.14 +0.10    -0.248 N 
DOCKED: ATOM     27  N   UNL d   1       2.617 -17.302  -6.488 -0.08 +0.12    -0.248 N 
DOCKED: ATOM     28  N   UNL d   1       1.312 -17.233  -9.082 -0.08 +0.11    -0.248 N 
DOCKED: ATOM     29 FE   UNL d   1       3.018 -16.488  -8.286 -0.05 -0.00    +0.000 Fe
DOCKED: ATOM     30  O   UNL d   1       4.189 -17.188  -9.036 -0.13 -0.00    +0.000 OA
DOCKED: ATOM     31  O   UNL d   1       3.130 -18.057  -8.258 -0.14 -0.00    +0.000 OA
DOCKED: ENDROOT
DOCKED: BRANCH   6  32
DOCKED: ATOM     32  C   UNL d   1       2.965 -14.888 -13.699 -0.12 -0.01    +0.052 C 
DOCKED: BRANCH  32  33
DOCKED: ATOM     33  C   UNL d   1       3.517 -16.024 -14.555 -0.02 -0.01    +0.115 C 
DOCKED: BRANCH  33  34
DOCKED: ATOM     34  C   UNL d   1       2.503 -17.117 -14.783 -0.01 -0.00    +0.139 C 
DOCKED: ATOM     35  O   UNL d   1       2.676 -18.215 -14.278 +0.02 +0.00    -0.650 OA
DOCKED: BRANCH  34  36
DOCKED: ATOM     36  O   UNL d   1       1.418 -16.919 -15.559 +0.04 -0.03    -0.776 OA
DOCKED: ATOM     37  H   UNL d   1       0.636 -17.479 -15.497 +0.02 +0.02    +0.167 HD
DOCKED: ENDBRANCH  34  36
DOCKED: ENDBRANCH  33  34
DOCKED: ENDBRANCH  32  33
DOCKED: ENDBRANCH   6  32
DOCKED: BRANCH  22  38
DOCKED: ATOM     38  C   UNL d   1      -1.241 -17.759 -11.729 -0.13 +0.01    +0.052 C 
DOCKED: BRANCH  38  39
DOCKED: ATOM     39  C   UNL d   1      -0.395 -17.795 -13.000 -0.16 +0.02    +0.115 C 
DOCKED: BRANCH  39  40
DOCKED: ATOM     40  C   UNL d   1      -0.881 -18.828 -13.987 -0.12 +0.04    +0.139 C 
DOCKED: ATOM     41  O   UNL d   1      -2.035 -19.223 -13.932 -0.05 -0.41    -0.650 OA
DOCKED: BRANCH  40  42
DOCKED: ATOM     42  O   UNL d   1      -0.077 -19.288 -14.965 +0.03 -0.19    -0.776 OA
DOCKED: ATOM     43  H   UNL d   1       0.807 -18.927 -15.103 +0.02 +0.02    +0.167 HD
DOCKED: ENDBRANCH  40  42
DOCKED: ENDBRANCH  39  40
DOCKED: ENDBRANCH  38  39
DOCKED: ENDBRANCH  22  38
DOCKED: BRANCH  12  44
DOCKED: ATOM     44  C   UNL d   1       7.196 -14.651  -4.807 -0.23 -0.00    +0.004 C 
DOCKED: ATOM     45  C   UNL d   1       6.787 -14.337  -3.578 -0.31 -0.01    +0.012 C 
DOCKED: ENDBRANCH  12  44
DOCKED: BRANCH  17  46
DOCKED: ATOM     46  C   UNL d   1       0.623 -19.501  -4.257 -0.18 -0.00    +0.004 C 
DOCKED: ATOM     47  C   UNL d   1       0.696 -20.122  -3.073 -0.25 -0.00    +0.012 C 
DOCKED: ENDBRANCH  17  46
DOCKED: TORSDOF 10
DOCKED: TER
DOCKED: ENDMDL
________________________________________________________________________________


	BEGINNING GENETIC ALGORITHM DOCKING 39 of 100
Run: 39 Seed: 508636444 436958781 [ Run 39 of 100 GA/GALS ]
Beginning LAMARCKIAN GENETIC ALGORITHM (LGA), with a maximum of 25000000 energy evaluations.

Final-Value: -8.628


	FINAL GENETIC ALGORITHM DOCKED STATE
	_______________________________________________


Detailed state:  trans 11.705 12.266 -11.955 quatxyzw -0.440070 -0.825210 -0.165958 -0.312770 center 8.287 34.468 -0.670 ntor 10 -135.1758 72.5543 32.1989 -119.8585 -70.9710 -52.5464 131.1701 120.8936 21.8623 164.3272
State:	 11.705  12.266 -11.955  -0.463 -0.869 -0.175 -143.547   -135.18   72.55   32.20 -119.86  -70.97  -52.55  131.17  120.89   21.86  164.33

DOCKED: MODEL       39
DOCKED: USER    Run = 39
DOCKED: USER    DPF = D:/Protein_go_brrr/autodock/final/mut_Y35F/heme_O2/dock.dpf
DOCKED: USER  
DOCKED: USER    Estimated Free Energy of Binding    =   -4.91 kcal/mol  [=(1)+(2)+(3)-(4)]
DOCKED: USER    Estimated Inhibition Constant, Ki   =  252.80 uM (micromolar)  [Temperature = 298.15 K]
DOCKED: USER    
DOCKED: USER    (1) Final Intermolecular Energy     =   -7.89 kcal/mol
DOCKED: USER        vdW + Hbond + desolv Energy     =   -8.25 kcal/mol
DOCKED: USER        Electrostatic Energy            =   +0.36 kcal/mol
DOCKED: USER    (2) Final Total Internal Energy     =   -0.74 kcal/mol
DOCKED: USER    (3) Torsional Free Energy           =   +2.98 kcal/mol
DOCKED: USER    (4) Unbound System's Energy  [=(2)] =   -0.74 kcal/mol
DOCKED: USER    
DOCKED: USER    
DOCKED: USER    NEWDPF move heme_O2_opt.pdbqt
DOCKED: USER    NEWDPF about 8.287000 34.468000 -0.670000
DOCKED: USER    NEWDPF tran0 11.705081 12.266174 -11.955316
DOCKED: USER    NEWDPF quaternion0 -0.440070 -0.825210 -0.165958 -0.312770
DOCKED: USER    NEWDPF axisangle0 -0.463315 -0.868799 -0.174724 -143.547472
DOCKED: USER    NEWDPF quat0 -0.463315 -0.868799 -0.174724 -143.547472
DOCKED: USER    NEWDPF dihe0 -135.18 72.55 32.20 -119.86 -70.97 -52.55 131.17 120.89 21.86 164.33 
DOCKED: USER  keepresnum = 1 
DOCKED: USER  
DOCKED: REMARK  10 active torsions:
DOCKED: REMARK  status: ('A' for Active; 'I' for Inactive)
DOCKED: REMARK    1  A    between atoms: C_6  and  C_10 
DOCKED: REMARK    2  A    between atoms: C_10  and  C_11 
DOCKED: REMARK    3  A    between atoms: C_11  and  C_12 
DOCKED: REMARK    4  A    between atoms: C_12  and  O_14 
DOCKED: REMARK    5  A    between atoms: C_17  and  C_20 
DOCKED: REMARK    6  A    between atoms: C_24  and  C_27 
DOCKED: REMARK    7  A    between atoms: C_31  and  C_34 
DOCKED: REMARK    8  A    between atoms: C_34  and  C_35 
DOCKED: REMARK    9  A    between atoms: C_35  and  C_36 
DOCKED: REMARK   10  A    between atoms: C_36  and  O_38 
DOCKED: USER                              x       y       z     vdW  Elec       q    Type
DOCKED: USER                           _______ _______ _______ _____ _____    ______ ____
DOCKED: ROOT
DOCKED: ATOM      1  C   UNL d   1      13.281  10.998 -12.595 -0.23 -0.02    +0.064 A 
DOCKED: ATOM      2  C   UNL d   1       9.155  12.245 -14.591 -0.04 -0.00    +0.064 A 
DOCKED: ATOM      3  C   UNL d   1       8.023  14.946 -10.781 -0.20 +0.00    +0.064 C 
DOCKED: ATOM      4  C   UNL d   1      12.475  14.052  -8.926 -0.19 -0.01    +0.064 A 
DOCKED: ATOM      5  C   UNL d   1      12.252  11.119 -13.450 -0.17 -0.01    +0.066 A 
DOCKED: ATOM      6  C   UNL d   1      12.177  10.463 -14.682 -0.13 +0.00    -0.021 A 
DOCKED: ATOM      7  C   UNL d   1      11.003  10.857 -15.280 -0.10 +0.00    -0.025 A 
DOCKED: ATOM      8  C   UNL d   1      10.370  11.705 -14.375 -0.04 -0.00    +0.066 A 
DOCKED: ATOM      9  C   UNL d   1      10.556  10.445 -16.665 -0.06 -0.00    +0.051 C 
DOCKED: ATOM     10  C   UNL d   1       8.431  13.123 -13.670 -0.10 +0.00    +0.066 A 
DOCKED: ATOM     11  C   UNL d   1       7.105  13.523 -13.871 -0.22 -0.00    -0.021 A 
DOCKED: ATOM     12  C   UNL d   1       6.755  14.288 -12.774 -0.28 +0.00    +0.000 A 
DOCKED: ATOM     13  C   UNL d   1       7.916  14.322 -11.953 -0.24 +0.00    +0.070 A 
DOCKED: ATOM     14  C   UNL d   1       6.202  13.168 -15.046 -0.16 -0.00    +0.052 C 
DOCKED: ATOM     15  C   UNL d   1       9.190  15.034  -9.938 -0.23 +0.00    +0.066 A 
DOCKED: ATOM     16  C   UNL d   1       9.288  15.839  -8.803 -0.26 -0.00    -0.021 A 
DOCKED: ATOM     17  C   UNL d   1      10.549  15.601  -8.258 -0.25 -0.00    +0.000 A 
DOCKED: ATOM     18  C   UNL d   1      11.134  14.655  -9.111 -0.22 -0.01    +0.070 A 
DOCKED: ATOM     19  C   UNL d   1       8.201  16.794  -8.376 -0.26 +0.01    +0.052 C 
DOCKED: ATOM     20  C   UNL d   1      13.083  13.175  -9.748 -0.17 -0.02    +0.066 A 
DOCKED: ATOM     21  C   UNL d   1      14.342  12.628  -9.512 -0.16 +0.01    -0.025 A 
DOCKED: ATOM     22  C   UNL d   1      14.576  11.735 -10.533 -0.20 +0.01    -0.021 A 
DOCKED: ATOM     23  C   UNL d   1      13.455  11.784 -11.368 -0.11 -0.02    +0.066 A 
DOCKED: ATOM     24  C   UNL d   1      15.274  12.944  -8.372 -0.17 -0.01    +0.051 C 
DOCKED: ATOM     25  N   UNL d   1      11.170  11.917 -13.276 -0.09 +0.02    -0.248 N 
DOCKED: ATOM     26  N   UNL d   1       8.933  13.614 -12.508 -0.17 +0.00    -0.248 N 
DOCKED: ATOM     27  N   UNL d   1      10.325  14.379 -10.165 -0.15 +0.02    -0.248 N 
DOCKED: ATOM     28  N   UNL d   1      12.570  12.694 -10.911 -0.12 +0.06    -0.248 N 
DOCKED: ATOM     29 FE   UNL d   1      10.764  13.153 -11.702 -0.04 -0.00    +0.000 Fe
DOCKED: ATOM     30  O   UNL d   1      11.051  13.905 -13.033 -0.09 -0.00    +0.000 OA
DOCKED: ATOM     31  O   UNL d   1      11.618  14.473 -11.677 -0.09 -0.00    +0.000 OA
DOCKED: ENDROOT
DOCKED: BRANCH   6  32
DOCKED: ATOM     32  C   UNL d   1      13.229   9.606 -15.337 -0.16 -0.01    +0.052 C 
DOCKED: BRANCH  32  33
DOCKED: ATOM     33  C   UNL d   1      12.900   8.118 -15.283 -0.19 -0.03    +0.115 C 
DOCKED: BRANCH  33  34
DOCKED: ATOM     34  C   UNL d   1      12.554   7.656 -13.889 -0.39 -0.03    +0.139 C 
DOCKED: ATOM     35  O   UNL d   1      11.623   6.884 -13.723 -0.07 +0.12    -0.650 OA
DOCKED: BRANCH  34  36
DOCKED: ATOM     36  O   UNL d   1      13.236   8.099 -12.812 -0.50 +0.29    -0.776 OA
DOCKED: ATOM     37  H   UNL d   1      13.532   7.503 -12.115 -0.46 -0.10    +0.167 HD
DOCKED: ENDBRANCH  34  36
DOCKED: ENDBRANCH  33  34
DOCKED: ENDBRANCH  32  33
DOCKED: ENDBRANCH   6  32
DOCKED: BRANCH  22  38
DOCKED: ATOM     38  C   UNL d   1      15.836  10.931 -10.725 -0.30 -0.02    +0.052 C 
DOCKED: BRANCH  38  39
DOCKED: ATOM     39  C   UNL d   1      16.831  11.622 -11.654 -0.12 -0.02    +0.115 C 
DOCKED: BRANCH  39  40
DOCKED: ATOM     40  C   UNL d   1      16.267  11.854 -13.034 -0.11 -0.02    +0.139 C 
DOCKED: ATOM     41  O   UNL d   1      15.705  12.906 -13.290 +0.02 +0.09    -0.650 OA
DOCKED: BRANCH  40  42
DOCKED: ATOM     42  O   UNL d   1      16.416  10.937 -14.009 +0.04 +0.11    -0.776 OA
DOCKED: ATOM     43  H   UNL d   1      15.896  10.125 -14.022 -0.29 -0.05    +0.167 HD
DOCKED: ENDBRANCH  40  42
DOCKED: ENDBRANCH  39  40
DOCKED: ENDBRANCH  38  39
DOCKED: ENDBRANCH  22  38
DOCKED: BRANCH  12  44
DOCKED: ATOM     44  C   UNL d   1       5.376  14.898 -12.627 -0.26 +0.00    +0.004 C 
DOCKED: ATOM     45  C   UNL d   1       5.037  16.004 -11.966 -0.18 +0.00    +0.012 C 
DOCKED: ENDBRANCH  12  44
DOCKED: BRANCH  17  46
DOCKED: ATOM     46  C   UNL d   1      11.245  16.216  -7.073 -0.17 -0.00    +0.004 C 
DOCKED: ATOM     47  C   UNL d   1      12.456  16.786  -7.027 -0.17 -0.00    +0.012 C 
DOCKED: ENDBRANCH  17  46
DOCKED: TORSDOF 10
DOCKED: TER
DOCKED: ENDMDL
________________________________________________________________________________


	BEGINNING GENETIC ALGORITHM DOCKING 40 of 100
Run: 40 Seed: 1422286263 1988953276 [ Run 40 of 100 GA/GALS ]
Beginning LAMARCKIAN GENETIC ALGORITHM (LGA), with a maximum of 25000000 energy evaluations.

Final-Value: -10.036


	FINAL GENETIC ALGORITHM DOCKED STATE
	_______________________________________________


Detailed state:  trans 20.856 5.046 4.329 quatxyzw -0.303677 0.176697 0.752434 0.557136 center 8.287 34.468 -0.670 ntor 10 26.5412 82.5166 102.1934 120.2382 -152.7414 104.5164 -168.3337 -164.5632 -10.4077 -17.4138
State:	 20.856   5.046   4.329  -0.366  0.213  0.906 112.284     26.54   82.52  102.19  120.24 -152.74  104.52 -168.33 -164.56  -10.41  -17.41

DOCKED: MODEL       40
DOCKED: USER    Run = 40
DOCKED: USER    DPF = D:/Protein_go_brrr/autodock/final/mut_Y35F/heme_O2/dock.dpf
DOCKED: USER  
DOCKED: USER    Estimated Free Energy of Binding    =   -5.57 kcal/mol  [=(1)+(2)+(3)-(4)]
DOCKED: USER    Estimated Inhibition Constant, Ki   =   82.06 uM (micromolar)  [Temperature = 298.15 K]
DOCKED: USER    
DOCKED: USER    (1) Final Intermolecular Energy     =   -8.56 kcal/mol
DOCKED: USER        vdW + Hbond + desolv Energy     =   -5.99 kcal/mol
DOCKED: USER        Electrostatic Energy            =   -2.56 kcal/mol
DOCKED: USER    (2) Final Total Internal Energy     =   -1.48 kcal/mol
DOCKED: USER    (3) Torsional Free Energy           =   +2.98 kcal/mol
DOCKED: USER    (4) Unbound System's Energy  [=(2)] =   -1.48 kcal/mol
DOCKED: USER    
DOCKED: USER    
DOCKED: USER    NEWDPF move heme_O2_opt.pdbqt
DOCKED: USER    NEWDPF about 8.287000 34.468000 -0.670000
DOCKED: USER    NEWDPF tran0 20.855967 5.045653 4.328878
DOCKED: USER    NEWDPF quaternion0 -0.303677 0.176697 0.752434 0.557136
DOCKED: USER    NEWDPF axisangle0 -0.365690 0.212780 0.906088 112.284015
DOCKED: USER    NEWDPF quat0 -0.365690 0.212780 0.906088 112.284015
DOCKED: USER    NEWDPF dihe0 26.54 82.52 102.19 120.24 -152.74 104.52 -168.33 -164.56 -10.41 -17.41 
DOCKED: USER  keepresnum = 1 
DOCKED: USER  
DOCKED: REMARK  10 active torsions:
DOCKED: REMARK  status: ('A' for Active; 'I' for Inactive)
DOCKED: REMARK    1  A    between atoms: C_6  and  C_10 
DOCKED: REMARK    2  A    between atoms: C_10  and  C_11 
DOCKED: REMARK    3  A    between atoms: C_11  and  C_12 
DOCKED: REMARK    4  A    between atoms: C_12  and  O_14 
DOCKED: REMARK    5  A    between atoms: C_17  and  C_20 
DOCKED: REMARK    6  A    between atoms: C_24  and  C_27 
DOCKED: REMARK    7  A    between atoms: C_31  and  C_34 
DOCKED: REMARK    8  A    between atoms: C_34  and  C_35 
DOCKED: REMARK    9  A    between atoms: C_35  and  C_36 
DOCKED: REMARK   10  A    between atoms: C_36  and  O_38 
DOCKED: USER                              x       y       z     vdW  Elec       q    Type
DOCKED: USER                           _______ _______ _______ _____ _____    ______ ____
DOCKED: ROOT
DOCKED: ATOM      1  C   UNL d   1      22.183   6.681   4.577 -0.07 +0.05    +0.064 A 
DOCKED: ATOM      2  C   UNL d   1      17.537   6.165   5.415 -0.12 +0.02    +0.064 A 
DOCKED: ATOM      3  C   UNL d   1      17.659   1.633   3.820 -0.34 +0.02    +0.064 C 
DOCKED: ATOM      4  C   UNL d   1      22.533   1.998   3.402 -0.08 +0.02    +0.064 A 
DOCKED: ATOM      5  C   UNL d   1      20.910   6.910   4.936 -0.08 +0.05    +0.066 A 
DOCKED: ATOM      6  C   UNL d   1      20.445   8.131   5.434 -0.08 -0.01    -0.021 A 
DOCKED: ATOM      7  C   UNL d   1      19.109   7.969   5.718 -0.09 -0.01    -0.025 A 
DOCKED: ATOM      8  C   UNL d   1      18.784   6.669   5.340 -0.12 +0.03    +0.066 A 
DOCKED: ATOM      9  C   UNL d   1      18.224   9.023   6.349 -0.06 +0.01    +0.051 C 
DOCKED: ATOM     10  C   UNL d   1      17.131   4.818   5.013 -0.17 +0.02    +0.066 A 
DOCKED: ATOM     11  C   UNL d   1      15.797   4.401   4.957 -0.24 -0.01    -0.021 A 
DOCKED: ATOM     12  C   UNL d   1      15.810   3.102   4.482 -0.37 +0.00    +0.000 A 
DOCKED: ATOM     13  C   UNL d   1      17.183   2.790   4.282 -0.25 +0.02    +0.070 A 
DOCKED: ATOM     14  C   UNL d   1      14.559   5.216   5.316 -0.25 +0.02    +0.052 C 
DOCKED: ATOM     15  C   UNL d   1      19.042   1.266   3.637 -0.22 +0.02    +0.066 A 
DOCKED: ATOM     16  C   UNL d   1      19.482  -0.016   3.306 -0.27 -0.00    -0.021 A 
DOCKED: ATOM     17  C   UNL d   1      20.869   0.064   3.183 -0.18 +0.00    +0.000 A 
DOCKED: ATOM     18  C   UNL d   1      21.175   1.406   3.448 -0.14 +0.02    +0.070 A 
DOCKED: ATOM     19  C   UNL d   1      18.556  -1.200   3.194 -0.26 +0.01    +0.052 C 
DOCKED: ATOM     20  C   UNL d   1      22.867   3.270   3.693 -0.07 +0.03    +0.066 A 
DOCKED: ATOM     21  C   UNL d   1      24.162   3.775   3.614 -0.04 -0.01    -0.025 A 
DOCKED: ATOM     22  C   UNL d   1      24.077   5.115   3.919 -0.05 -0.01    -0.021 A 
DOCKED: ATOM     23  C   UNL d   1      22.730   5.375   4.192 -0.05 +0.05    +0.066 A 
DOCKED: ATOM     24  C   UNL d   1      25.417   3.016   3.268 -0.01 +0.01    +0.051 C 
DOCKED: ATOM     25  N   UNL d   1      19.908   5.997   4.920 -0.08 -0.18    -0.248 N 
DOCKED: ATOM     26  N   UNL d   1      17.980   3.838   4.612 -0.13 -0.10    -0.248 N 
DOCKED: ATOM     27  N   UNL d   1      20.063   2.103   3.795 -0.12 -0.09    -0.248 N 
DOCKED: ATOM     28  N   UNL d   1      22.005   4.241   4.097 -0.04 -0.16    -0.248 N 
DOCKED: ATOM     29 FE   UNL d   1      20.008   4.038   4.352 -0.04 +0.00    +0.000 Fe
DOCKED: ATOM     30  O   UNL d   1      19.741   4.239   5.872 -0.08 +0.00    +0.000 OA
DOCKED: ATOM     31  O   UNL d   1      20.715   3.096   5.394 -0.08 +0.00    +0.000 OA
DOCKED: ENDROOT
DOCKED: BRANCH   6  32
DOCKED: ATOM     32  C   UNL d   1      21.250   9.361   5.762 -0.03 +0.02    +0.052 C 
DOCKED: BRANCH  32  33
DOCKED: ATOM     33  C   UNL d   1      21.724  10.107   4.519 -0.05 +0.04    +0.115 C 
DOCKED: BRANCH  33  34
DOCKED: ATOM     34  C   UNL d   1      21.094   9.578   3.255 -0.16 +0.11    +0.139 C 
DOCKED: ATOM     35  O   UNL d   1      19.877   9.544   3.156 -0.19 -0.56    -0.650 OA
DOCKED: BRANCH  34  36
DOCKED: ATOM     36  O   UNL d   1      21.845   9.112   2.235 +0.03 -1.00    -0.776 OA
DOCKED: ATOM     37  H   UNL d   1      22.725   8.744   2.376 +0.02 +0.19    +0.167 HD
DOCKED: ENDBRANCH  34  36
DOCKED: ENDBRANCH  33  34
DOCKED: ENDBRANCH  32  33
DOCKED: ENDBRANCH   6  32
DOCKED: BRANCH  22  38
DOCKED: ATOM     38  C   UNL d   1      25.238   6.071   4.005 -0.01 +0.01    +0.052 C 
DOCKED: BRANCH  38  39
DOCKED: ATOM     39  C   UNL d   1      25.621   6.645   2.642 -0.01 +0.03    +0.115 C 
DOCKED: BRANCH  39  40
DOCKED: ATOM     40  C   UNL d   1      24.561   6.405   1.597 -0.06 +0.08    +0.139 C 
DOCKED: ATOM     41  O   UNL d   1      24.779   5.629   0.680 +0.00 -0.29    -0.650 OA
DOCKED: BRANCH  40  42
DOCKED: ATOM     42  O   UNL d   1      23.353   6.994   1.683 -0.27 -1.27    -0.776 OA
DOCKED: ATOM     43  H   UNL d   1      23.199   7.883   1.342 +0.02 +0.23    +0.167 HD
DOCKED: ENDBRANCH  40  42
DOCKED: ENDBRANCH  39  40
DOCKED: ENDBRANCH  38  39
DOCKED: ENDBRANCH  22  38
DOCKED: BRANCH  12  44
DOCKED: ATOM     44  C   UNL d   1      14.536   2.309   4.276 -0.50 +0.00    +0.004 C 
DOCKED: ATOM     45  C   UNL d   1      13.835   1.635   5.187 -0.35 +0.00    +0.012 C 
DOCKED: ENDBRANCH  12  44
DOCKED: BRANCH  17  46
DOCKED: ATOM     46  C   UNL d   1      21.899  -0.998   2.901 -0.12 +0.00    +0.004 C 
DOCKED: ATOM     47  C   UNL d   1      22.676  -1.132   1.819 -0.12 +0.00    +0.012 C 
DOCKED: ENDBRANCH  17  46
DOCKED: TORSDOF 10
DOCKED: TER
DOCKED: ENDMDL
________________________________________________________________________________


	BEGINNING GENETIC ALGORITHM DOCKING 41 of 100
Run: 41 Seed: 1551113092 855274701 [ Run 41 of 100 GA/GALS ]
Beginning LAMARCKIAN GENETIC ALGORITHM (LGA), with a maximum of 25000000 energy evaluations.

Final-Value: -9.063


	FINAL GENETIC ALGORITHM DOCKED STATE
	_______________________________________________


Detailed state:  trans -14.815 10.723 10.970 quatxyzw -0.811874 -0.389333 -0.432812 0.044200 center 8.287 34.468 -0.670 ntor 10 78.2337 -150.4034 -14.6107 -103.3868 -132.0932 94.0901 -33.8180 94.0933 -180.0000 180.0000
State:	-14.815  10.723  10.970  -0.813 -0.390 -0.433 174.933     78.23 -150.40  -14.61 -103.39 -132.09   94.09  -33.82   94.09 -180.00  180.00

DOCKED: MODEL       41
DOCKED: USER    Run = 41
DOCKED: USER    DPF = D:/Protein_go_brrr/autodock/final/mut_Y35F/heme_O2/dock.dpf
DOCKED: USER  
DOCKED: USER    Estimated Free Energy of Binding    =   -4.08 kcal/mol  [=(1)+(2)+(3)-(4)]
DOCKED: USER    Estimated Inhibition Constant, Ki   =    1.03 mM (millimolar)  [Temperature = 298.15 K]
DOCKED: USER    
DOCKED: USER    (1) Final Intermolecular Energy     =   -7.06 kcal/mol
DOCKED: USER        vdW + Hbond + desolv Energy     =   -3.18 kcal/mol
DOCKED: USER        Electrostatic Energy            =   -3.88 kcal/mol
DOCKED: USER    (2) Final Total Internal Energy     =   -2.00 kcal/mol
DOCKED: USER    (3) Torsional Free Energy           =   +2.98 kcal/mol
DOCKED: USER    (4) Unbound System's Energy  [=(2)] =   -2.00 kcal/mol
DOCKED: USER    
DOCKED: USER    
DOCKED: USER    NEWDPF move heme_O2_opt.pdbqt
DOCKED: USER    NEWDPF about 8.287000 34.468000 -0.670000
DOCKED: USER    NEWDPF tran0 -14.815155 10.723457 10.969805
DOCKED: USER    NEWDPF quaternion0 -0.811874 -0.389333 -0.432812 0.044200
DOCKED: USER    NEWDPF axisangle0 -0.812668 -0.389714 -0.433235 174.933382
DOCKED: USER    NEWDPF quat0 -0.812668 -0.389714 -0.433235 174.933382
DOCKED: USER    NEWDPF dihe0 78.23 -150.40 -14.61 -103.39 -132.09 94.09 -33.82 94.09 -180.00 180.00 
DOCKED: USER  keepresnum = 1 
DOCKED: USER  
DOCKED: REMARK  10 active torsions:
DOCKED: REMARK  status: ('A' for Active; 'I' for Inactive)
DOCKED: REMARK    1  A    between atoms: C_6  and  C_10 
DOCKED: REMARK    2  A    between atoms: C_10  and  C_11 
DOCKED: REMARK    3  A    between atoms: C_11  and  C_12 
DOCKED: REMARK    4  A    between atoms: C_12  and  O_14 
DOCKED: REMARK    5  A    between atoms: C_17  and  C_20 
DOCKED: REMARK    6  A    between atoms: C_24  and  C_27 
DOCKED: REMARK    7  A    between atoms: C_31  and  C_34 
DOCKED: REMARK    8  A    between atoms: C_34  and  C_35 
DOCKED: REMARK    9  A    between atoms: C_35  and  C_36 
DOCKED: REMARK   10  A    between atoms: C_36  and  O_38 
DOCKED: USER                              x       y       z     vdW  Elec       q    Type
DOCKED: USER                           _______ _______ _______ _____ _____    ______ ____
DOCKED: ROOT
DOCKED: ATOM      1  C   UNL d   1     -15.650   8.840  10.463 -0.01 +0.07    +0.064 A 
DOCKED: ATOM      2  C   UNL d   1     -14.158  12.501   7.830 -0.04 +0.02    +0.064 A 
DOCKED: ATOM      3  C   UNL d   1     -13.020  14.995  11.777 -0.07 -0.01    +0.064 C 
DOCKED: ATOM      4  C   UNL d   1     -14.106  11.051  14.484 -0.05 +0.03    +0.064 A 
DOCKED: ATOM      5  C   UNL d   1     -15.335   9.632   9.425 -0.04 +0.07    +0.066 A 
DOCKED: ATOM      6  C   UNL d   1     -15.537   9.284   8.086 -0.03 -0.01    -0.021 A 
DOCKED: ATOM      7  C   UNL d   1     -15.065  10.325   7.322 -0.02 -0.01    -0.025 A 
DOCKED: ATOM      8  C   UNL d   1     -14.633  11.301   8.216 -0.04 +0.03    +0.066 A 
DOCKED: ATOM      9  C   UNL d   1     -15.019  10.337   5.809 -0.01 +0.01    +0.051 C 
DOCKED: ATOM     10  C   UNL d   1     -13.711  13.573   8.721 -0.06 +0.01    +0.066 A 
DOCKED: ATOM     11  C   UNL d   1     -13.382  14.857   8.275 -0.11 +0.00    -0.021 A 
DOCKED: ATOM     12  C   UNL d   1     -13.068  15.597   9.400 -0.12 -0.00    +0.000 A 
DOCKED: ATOM     13  C   UNL d   1     -13.216  14.698  10.493 -0.07 -0.01    +0.070 A 
DOCKED: ATOM     14  C   UNL d   1     -13.392  15.366   6.838 -0.14 -0.01    +0.052 C 
DOCKED: ATOM     15  C   UNL d   1     -13.124  14.106  12.908 -0.05 +0.00    +0.066 A 
DOCKED: ATOM     16  C   UNL d   1     -12.747  14.435  14.210 -0.03 -0.00    -0.021 A 
DOCKED: ATOM     17  C   UNL d   1     -13.047  13.325  15.000 -0.03 +0.00    +0.000 A 
DOCKED: ATOM     18  C   UNL d   1     -13.593  12.390  14.109 -0.05 +0.02    +0.070 A 
DOCKED: ATOM     19  C   UNL d   1     -12.091  15.744  14.571 -0.02 -0.01    +0.052 C 
DOCKED: ATOM     20  C   UNL d   1     -14.596  10.114  13.649 -0.07 +0.05    +0.066 A 
DOCKED: ATOM     21  C   UNL d   1     -15.080   8.876  14.064 -0.05 -0.02    -0.025 A 
DOCKED: ATOM     22  C   UNL d   1     -15.550   8.244  12.934 -0.06 -0.02    -0.021 A 
DOCKED: ATOM     23  C   UNL d   1     -15.316   9.115  11.866 -0.02 +0.08    +0.066 A 
DOCKED: ATOM     24  C   UNL d   1     -15.092   8.324  15.465 -0.02 +0.02    +0.051 C 
DOCKED: ATOM     25  N   UNL d   1     -14.739  10.846   9.510 -0.05 -0.22    -0.248 N 
DOCKED: ATOM     26  N   UNL d   1     -13.602  13.467  10.070 -0.03 -0.05    -0.248 N 
DOCKED: ATOM     27  N   UNL d   1     -13.563  12.852  12.833 -0.05 -0.08    -0.248 N 
DOCKED: ATOM     28  N   UNL d   1     -14.696  10.232  12.299 -0.06 -0.29    -0.248 N 
DOCKED: ATOM     29 FE   UNL d   1     -14.152  11.839  11.195 -0.02 +0.00    +0.000 Fe
DOCKED: ATOM     30  O   UNL d   1     -12.970  11.370  10.297 -0.15 +0.00    +0.000 OA
DOCKED: ATOM     31  O   UNL d   1     -12.850  11.265  11.865 -0.60 +0.00    +0.000 OA
DOCKED: ENDROOT
DOCKED: BRANCH   6  32
DOCKED: ATOM     32  C   UNL d   1     -16.026   7.968   7.538 -0.02 +0.03    +0.052 C 
DOCKED: BRANCH  32  33
DOCKED: ATOM     33  C   UNL d   1     -14.889   7.046   7.108 -0.06 +0.08    +0.115 C 
DOCKED: BRANCH  33  34
DOCKED: ATOM     34  C   UNL d   1     -15.189   5.595   7.388 -0.11 +0.14    +0.139 C 
DOCKED: ATOM     35  O   UNL d   1     -15.950   4.983   6.656 -0.02 -0.44    -0.650 OA
DOCKED: BRANCH  34  36
DOCKED: ATOM     36  O   UNL d   1     -14.654   4.959   8.451 -0.09 -1.69    -0.776 OA
DOCKED: ATOM     37  H   UNL d   1     -15.004   5.071   9.343 +0.03 +0.30    +0.167 HD
DOCKED: ENDBRANCH  34  36
DOCKED: ENDBRANCH  33  34
DOCKED: ENDBRANCH  32  33
DOCKED: ENDBRANCH   6  32
DOCKED: BRANCH  22  38
DOCKED: ATOM     38  C   UNL d   1     -16.129   6.854  12.883 -0.05 +0.03    +0.052 C 
DOCKED: BRANCH  38  39
DOCKED: ATOM     39  C   UNL d   1     -15.052   5.772  12.921 -0.11 +0.09    +0.115 C 
DOCKED: BRANCH  39  40
DOCKED: ATOM     40  C   UNL d   1     -14.524   5.436  11.549 -0.18 +0.18    +0.139 C 
DOCKED: ATOM     41  O   UNL d   1     -14.607   4.293  11.130 -0.25 -1.11    -0.650 OA
DOCKED: BRANCH  40  42
DOCKED: ATOM     42  O   UNL d   1     -14.005   6.389  10.750 +0.16 -1.46    -0.776 OA
DOCKED: ATOM     43  H   UNL d   1     -14.086   6.343   9.790 +0.03 +0.30    +0.167 HD
DOCKED: ENDBRANCH  40  42
DOCKED: ENDBRANCH  39  40
DOCKED: ENDBRANCH  38  39
DOCKED: ENDBRANCH  22  38
DOCKED: BRANCH  12  44
DOCKED: ATOM     44  C   UNL d   1     -12.665  17.054   9.318 -0.16 -0.00    +0.004 C 
DOCKED: ATOM     45  C   UNL d   1     -12.674  17.963  10.293 -0.13 -0.01    +0.012 C 
DOCKED: ENDBRANCH  12  44
DOCKED: BRANCH  17  46
DOCKED: ATOM     46  C   UNL d   1     -12.814  13.061  16.464 -0.01 +0.00    +0.004 C 
DOCKED: ATOM     47  C   UNL d   1     -11.953  12.203  17.024 -0.02 +0.00    +0.012 C 
DOCKED: ENDBRANCH  17  46
DOCKED: TORSDOF 10
DOCKED: TER
DOCKED: ENDMDL
________________________________________________________________________________


	BEGINNING GENETIC ALGORITHM DOCKING 42 of 100
Run: 42 Seed: 369126531 28333119 [ Run 42 of 100 GA/GALS ]
Beginning LAMARCKIAN GENETIC ALGORITHM (LGA), with a maximum of 25000000 energy evaluations.

Final-Value: -9.437


	FINAL GENETIC ALGORITHM DOCKED STATE
	_______________________________________________


Detailed state:  trans 8.075 12.730 -13.729 quatxyzw -0.559357 0.078816 -0.236586 -0.790528 center 8.287 34.468 -0.670 ntor 10 127.5282 145.4514 11.2387 118.6962 -53.1741 -79.3471 63.3899 -64.3999 22.7728 -4.6261
State:	  8.075  12.730 -13.729  -0.913  0.129 -0.386 -75.530    127.53  145.45   11.24  118.70  -53.17  -79.35   63.39  -64.40   22.77   -4.63

DOCKED: MODEL       42
DOCKED: USER    Run = 42
DOCKED: USER    DPF = D:/Protein_go_brrr/autodock/final/mut_Y35F/heme_O2/dock.dpf
DOCKED: USER  
DOCKED: USER    Estimated Free Energy of Binding    =   -3.93 kcal/mol  [=(1)+(2)+(3)-(4)]
DOCKED: USER    Estimated Inhibition Constant, Ki   =    1.32 mM (millimolar)  [Temperature = 298.15 K]
DOCKED: USER    
DOCKED: USER    (1) Final Intermolecular Energy     =   -6.91 kcal/mol
DOCKED: USER        vdW + Hbond + desolv Energy     =   -6.95 kcal/mol
DOCKED: USER        Electrostatic Energy            =   +0.04 kcal/mol
DOCKED: USER    (2) Final Total Internal Energy     =   -2.53 kcal/mol
DOCKED: USER    (3) Torsional Free Energy           =   +2.98 kcal/mol
DOCKED: USER    (4) Unbound System's Energy  [=(2)] =   -2.53 kcal/mol
DOCKED: USER    
DOCKED: USER    
DOCKED: USER    NEWDPF move heme_O2_opt.pdbqt
DOCKED: USER    NEWDPF about 8.287000 34.468000 -0.670000
DOCKED: USER    NEWDPF tran0 8.074722 12.729985 -13.729134
DOCKED: USER    NEWDPF quaternion0 -0.559357 0.078816 -0.236586 -0.790528
DOCKED: USER    NEWDPF axisangle0 -0.913347 0.128695 -0.386309 -75.530186
DOCKED: USER    NEWDPF quat0 -0.913347 0.128695 -0.386309 -75.530186
DOCKED: USER    NEWDPF dihe0 127.53 145.45 11.24 118.70 -53.17 -79.35 63.39 -64.40 22.77 -4.63 
DOCKED: USER  keepresnum = 1 
DOCKED: USER  
DOCKED: REMARK  10 active torsions:
DOCKED: REMARK  status: ('A' for Active; 'I' for Inactive)
DOCKED: REMARK    1  A    between atoms: C_6  and  C_10 
DOCKED: REMARK    2  A    between atoms: C_10  and  C_11 
DOCKED: REMARK    3  A    between atoms: C_11  and  C_12 
DOCKED: REMARK    4  A    between atoms: C_12  and  O_14 
DOCKED: REMARK    5  A    between atoms: C_17  and  C_20 
DOCKED: REMARK    6  A    between atoms: C_24  and  C_27 
DOCKED: REMARK    7  A    between atoms: C_31  and  C_34 
DOCKED: REMARK    8  A    between atoms: C_34  and  C_35 
DOCKED: REMARK    9  A    between atoms: C_35  and  C_36 
DOCKED: REMARK   10  A    between atoms: C_36  and  O_38 
DOCKED: USER                              x       y       z     vdW  Elec       q    Type
DOCKED: USER                           _______ _______ _______ _____ _____    ______ ____
DOCKED: ROOT
DOCKED: ATOM      1  C   UNL d   1       6.298  13.075 -14.835 -0.16 +0.00    +0.064 A 
DOCKED: ATOM      2  C   UNL d   1       7.990  14.956 -10.816 -0.16 +0.01    +0.064 A 
DOCKED: ATOM      3  C   UNL d   1      11.875  12.135 -11.023 -0.21 -0.02    +0.064 C 
DOCKED: ATOM      4  C   UNL d   1      10.377  10.532 -15.410 -0.09 -0.00    +0.064 A 
DOCKED: ATOM      5  C   UNL d   1       6.442  13.818 -13.726 -0.21 +0.00    +0.066 A 
DOCKED: ATOM      6  C   UNL d   1       5.506  14.758 -13.287 -0.19 -0.00    -0.021 A 
DOCKED: ATOM      7  C   UNL d   1       6.015  15.335 -12.147 -0.20 -0.00    -0.025 A 
DOCKED: ATOM      8  C   UNL d   1       7.226  14.696 -11.894 -0.21 +0.00    +0.066 A 
DOCKED: ATOM      9  C   UNL d   1       5.359  16.462 -11.380 -0.15 +0.00    +0.051 C 
DOCKED: ATOM     10  C   UNL d   1       9.258  14.304 -10.486 -0.26 -0.00    +0.066 A 
DOCKED: ATOM     11  C   UNL d   1       9.928  14.494  -9.273 -0.34 +0.00    -0.021 A 
DOCKED: ATOM     12  C   UNL d   1      11.042  13.675  -9.306 -0.35 -0.00    +0.000 A 
DOCKED: ATOM     13  C   UNL d   1      10.993  13.026 -10.571 -0.26 -0.01    +0.070 A 
DOCKED: ATOM     14  C   UNL d   1       9.509  15.398  -8.119 -0.38 +0.00    +0.052 C 
DOCKED: ATOM     15  C   UNL d   1      11.881  11.483 -12.310 -0.23 -0.01    +0.066 A 
DOCKED: ATOM     16  C   UNL d   1      12.920  10.685 -12.787 -0.27 +0.01    -0.021 A 
DOCKED: ATOM     17  C   UNL d   1      12.516  10.218 -14.038 -0.21 -0.00    +0.000 A 
DOCKED: ATOM     18  C   UNL d   1      11.242  10.771 -14.231 -0.13 -0.01    +0.070 A 
DOCKED: ATOM     19  C   UNL d   1      14.215  10.488 -12.040 -0.29 -0.02    +0.052 C 
DOCKED: ATOM     20  C   UNL d   1       9.170  11.080 -15.647 -0.06 -0.00    +0.066 A 
DOCKED: ATOM     21  C   UNL d   1       8.393  10.803 -16.769 -0.08 +0.00    -0.025 A 
DOCKED: ATOM     22  C   UNL d   1       7.216  11.498 -16.608 -0.09 +0.00    -0.021 A 
DOCKED: ATOM     23  C   UNL d   1       7.325  12.190 -15.399 -0.12 -0.00    +0.066 A 
DOCKED: ATOM     24  C   UNL d   1       8.758   9.923 -17.936 -0.04 -0.00    +0.051 C 
DOCKED: ATOM     25  N   UNL d   1       7.519  13.808 -12.903 -0.19 -0.01    -0.248 N 
DOCKED: ATOM     26  N   UNL d   1       9.907  13.418 -11.284 -0.18 +0.02    -0.248 N 
DOCKED: ATOM     27  N   UNL d   1      10.905  11.596 -13.207 -0.02 +0.02    -0.248 N 
DOCKED: ATOM     28  N   UNL d   1       8.533  11.969 -14.840 -0.05 -0.00    -0.248 N 
DOCKED: ATOM     29 FE   UNL d   1       9.217  12.687 -13.075 -0.05 +0.00    +0.000 Fe
DOCKED: ATOM     30  O   UNL d   1       9.447  14.212 -13.286 -0.13 -0.00    +0.000 OA
DOCKED: ATOM     31  O   UNL d   1      10.205  13.175 -14.198 -0.11 -0.00    +0.000 OA
DOCKED: ENDROOT
DOCKED: BRANCH   6  32
DOCKED: ATOM     32  C   UNL d   1       4.244  15.200 -13.983 -0.12 +0.00    +0.052 C 
DOCKED: BRANCH  32  33
DOCKED: ATOM     33  C   UNL d   1       2.982  14.653 -13.325 -0.16 +0.00    +0.115 C 
DOCKED: BRANCH  33  34
DOCKED: ATOM     34  C   UNL d   1       2.181  13.776 -14.255 -0.13 -0.00    +0.139 C 
DOCKED: ATOM     35  O   UNL d   1       1.428  12.934 -13.792 +0.05 +0.02    -0.650 OA
DOCKED: BRANCH  34  36
DOCKED: ATOM     36  O   UNL d   1       2.300  13.879 -15.595 +0.03 +0.02    -0.776 OA
DOCKED: ATOM     37  H   UNL d   1       2.479  13.114 -16.153 +0.02 -0.01    +0.167 HD
DOCKED: ENDBRANCH  34  36
DOCKED: ENDBRANCH  33  34
DOCKED: ENDBRANCH  32  33
DOCKED: ENDBRANCH   6  32
DOCKED: BRANCH  22  38
DOCKED: ATOM     38  C   UNL d   1       6.080  11.540 -17.598 -0.04 -0.00    +0.052 C 
DOCKED: BRANCH  38  39
DOCKED: ATOM     39  C   UNL d   1       4.970  10.549 -17.253 -0.06 -0.01    +0.115 C 
DOCKED: BRANCH  39  40
DOCKED: ATOM     40  C   UNL d   1       3.678  11.235 -16.886 -0.06 -0.01    +0.139 C 
DOCKED: ATOM     41  O   UNL d   1       3.079  11.888 -17.725 +0.01 +0.03    -0.650 OA
DOCKED: BRANCH  40  42
DOCKED: ATOM     42  O   UNL d   1       3.142  11.098 -15.658 +0.05 +0.04    -0.776 OA
DOCKED: ATOM     43  H   UNL d   1       2.632  11.807 -15.248 +0.04 -0.01    +0.167 HD
DOCKED: ENDBRANCH  40  42
DOCKED: ENDBRANCH  39  40
DOCKED: ENDBRANCH  38  39
DOCKED: ENDBRANCH  22  38
DOCKED: BRANCH  12  44
DOCKED: ATOM     44  C   UNL d   1      12.019  13.600  -8.151 -0.41 -0.00    +0.004 C 
DOCKED: ATOM     45  C   UNL d   1      13.185  12.956  -8.106 -0.33 -0.00    +0.012 C 
DOCKED: ENDBRANCH  12  44
DOCKED: BRANCH  17  46
DOCKED: ATOM     46  C   UNL d   1      13.232   9.369 -15.054 -0.20 -0.00    +0.004 C 
DOCKED: ATOM     47  C   UNL d   1      12.950   8.116 -15.434 -0.23 -0.00    +0.012 C 
DOCKED: ENDBRANCH  17  46
DOCKED: TORSDOF 10
DOCKED: TER
DOCKED: ENDMDL
________________________________________________________________________________


	BEGINNING GENETIC ALGORITHM DOCKING 43 of 100
Run: 43 Seed: 100899677 1218622353 [ Run 43 of 100 GA/GALS ]
Beginning LAMARCKIAN GENETIC ALGORITHM (LGA), with a maximum of 25000000 energy evaluations.

Final-Value: -9.731


	FINAL GENETIC ALGORITHM DOCKED STATE
	_______________________________________________


Detailed state:  trans -11.977 -1.100 -7.396 quatxyzw -0.243827 -0.180544 0.767971 0.564068 center 8.287 34.468 -0.670 ntor 10 -145.3095 -106.5486 39.9772 -21.3155 -80.0668 98.9256 -69.7020 -66.8055 -105.5434 -31.1803
State:	-11.977  -1.100  -7.396  -0.295 -0.219  0.930 111.325   -145.31 -106.55   39.98  -21.32  -80.07   98.93  -69.70  -66.81 -105.54  -31.18

DOCKED: MODEL       43
DOCKED: USER    Run = 43
DOCKED: USER    DPF = D:/Protein_go_brrr/autodock/final/mut_Y35F/heme_O2/dock.dpf
DOCKED: USER  
DOCKED: USER    Estimated Free Energy of Binding    =   -4.55 kcal/mol  [=(1)+(2)+(3)-(4)]
DOCKED: USER    Estimated Inhibition Constant, Ki   =  465.75 uM (micromolar)  [Temperature = 298.15 K]
DOCKED: USER    
DOCKED: USER    (1) Final Intermolecular Energy     =   -7.53 kcal/mol
DOCKED: USER        vdW + Hbond + desolv Energy     =   -6.45 kcal/mol
DOCKED: USER        Electrostatic Energy            =   -1.08 kcal/mol
DOCKED: USER    (2) Final Total Internal Energy     =   -2.20 kcal/mol
DOCKED: USER    (3) Torsional Free Energy           =   +2.98 kcal/mol
DOCKED: USER    (4) Unbound System's Energy  [=(2)] =   -2.20 kcal/mol
DOCKED: USER    
DOCKED: USER    
DOCKED: USER    NEWDPF move heme_O2_opt.pdbqt
DOCKED: USER    NEWDPF about 8.287000 34.468000 -0.670000
DOCKED: USER    NEWDPF tran0 -11.976584 -1.099513 -7.395999
DOCKED: USER    NEWDPF quaternion0 -0.243827 -0.180544 0.767971 0.564068
DOCKED: USER    NEWDPF axisangle0 -0.295287 -0.218649 0.930053 111.324770
DOCKED: USER    NEWDPF quat0 -0.295287 -0.218649 0.930053 111.324770
DOCKED: USER    NEWDPF dihe0 -145.31 -106.55 39.98 -21.32 -80.07 98.93 -69.70 -66.81 -105.54 -31.18 
DOCKED: USER  keepresnum = 1 
DOCKED: USER  
DOCKED: REMARK  10 active torsions:
DOCKED: REMARK  status: ('A' for Active; 'I' for Inactive)
DOCKED: REMARK    1  A    between atoms: C_6  and  C_10 
DOCKED: REMARK    2  A    between atoms: C_10  and  C_11 
DOCKED: REMARK    3  A    between atoms: C_11  and  C_12 
DOCKED: REMARK    4  A    between atoms: C_12  and  O_14 
DOCKED: REMARK    5  A    between atoms: C_17  and  C_20 
DOCKED: REMARK    6  A    between atoms: C_24  and  C_27 
DOCKED: REMARK    7  A    between atoms: C_31  and  C_34 
DOCKED: REMARK    8  A    between atoms: C_34  and  C_35 
DOCKED: REMARK    9  A    between atoms: C_35  and  C_36 
DOCKED: REMARK   10  A    between atoms: C_36  and  O_38 
DOCKED: USER                              x       y       z     vdW  Elec       q    Type
DOCKED: USER                           _______ _______ _______ _____ _____    ______ ____
DOCKED: ROOT
DOCKED: ATOM      1  C   UNL d   1     -10.808   0.618  -6.969 -0.10 +0.00    +0.064 A 
DOCKED: ATOM      2  C   UNL d   1     -14.331  -1.530  -4.618 -0.19 +0.01    +0.064 A 
DOCKED: ATOM      3  C   UNL d   1     -14.778  -4.812  -8.100 -0.15 +0.00    +0.064 C 
DOCKED: ATOM      4  C   UNL d   1     -10.836  -2.894 -10.301 -0.11 +0.01    +0.064 A 
DOCKED: ATOM      5  C   UNL d   1     -11.728   0.301  -6.044 -0.16 +0.00    +0.066 A 
DOCKED: ATOM      6  C   UNL d   1     -11.944   1.030  -4.871 -0.21 -0.00    -0.021 A 
DOCKED: ATOM      7  C   UNL d   1     -12.934   0.384  -4.169 -0.21 -0.00    -0.025 A 
DOCKED: ATOM      8  C   UNL d   1     -13.330  -0.695  -4.955 -0.18 +0.01    +0.066 A 
DOCKED: ATOM      9  C   UNL d   1     -13.431   0.792  -2.799 -0.25 +0.00    +0.051 C 
DOCKED: ATOM     10  C   UNL d   1     -14.806  -2.664  -5.411 -0.17 +0.01    +0.066 A 
DOCKED: ATOM     11  C   UNL d   1     -15.954  -3.399  -5.094 -0.15 -0.00    -0.021 A 
DOCKED: ATOM     12  C   UNL d   1     -16.110  -4.339  -6.096 -0.10 +0.00    +0.000 A 
DOCKED: ATOM     13  C   UNL d   1     -15.017  -4.127  -6.981 -0.09 +0.01    +0.070 A 
DOCKED: ATOM     14  C   UNL d   1     -16.879  -3.195  -3.899 -0.15 +0.01    +0.052 C 
DOCKED: ATOM     15  C   UNL d   1     -13.664  -4.652  -9.004 -0.14 +0.00    +0.066 A 
DOCKED: ATOM     16  C   UNL d   1     -13.381  -5.508 -10.068 -0.17 -0.00    -0.021 A 
DOCKED: ATOM     17  C   UNL d   1     -12.261  -4.981 -10.710 -0.16 +0.00    +0.000 A 
DOCKED: ATOM     18  C   UNL d   1     -11.941  -3.828  -9.981 -0.14 +0.00    +0.070 A 
DOCKED: ATOM     19  C   UNL d   1     -14.164  -6.768 -10.341 -0.20 +0.00    +0.052 C 
DOCKED: ATOM     20  C   UNL d   1     -10.475  -1.803  -9.598 -0.16 +0.01    +0.066 A 
DOCKED: ATOM     21  C   UNL d   1      -9.435  -0.950  -9.959 -0.13 -0.00    -0.025 A 
DOCKED: ATOM     22  C   UNL d   1      -9.430   0.071  -9.036 -0.10 -0.00    -0.021 A 
DOCKED: ATOM     23  C   UNL d   1     -10.459  -0.206  -8.132 -0.07 +0.00    +0.066 A 
DOCKED: ATOM     24  C   UNL d   1      -8.492  -1.105 -11.124 -0.10 +0.00    +0.051 C 
DOCKED: ATOM     25  N   UNL d   1     -12.542  -0.783  -6.079 -0.10 -0.03    -0.248 N 
DOCKED: ATOM     26  N   UNL d   1     -14.226  -3.110  -6.555 -0.11 -0.02    -0.248 N 
DOCKED: ATOM     27  N   UNL d   1     -12.757  -3.685  -8.905 -0.09 -0.02    -0.248 N 
DOCKED: ATOM     28  N   UNL d   1     -11.063  -1.370  -8.452 -0.11 -0.03    -0.248 N 
DOCKED: ATOM     29 FE   UNL d   1     -12.633  -2.236  -7.512 -0.04 +0.00    +0.000 Fe
DOCKED: ATOM     30  O   UNL d   1     -12.095  -2.739  -6.141 +0.09 +0.00    +0.000 OA
DOCKED: ATOM     31  O   UNL d   1     -11.438  -3.258  -7.475 -0.33 +0.00    +0.000 OA
DOCKED: ENDROOT
DOCKED: BRANCH   6  32
DOCKED: ATOM     32  C   UNL d   1     -11.158   2.210  -4.360 -0.22 +0.00    +0.052 C 
DOCKED: BRANCH  32  33
DOCKED: ATOM     33  C   UNL d   1      -9.752   2.285  -4.949 -0.28 -0.01    +0.115 C 
DOCKED: BRANCH  33  34
DOCKED: ATOM     34  C   UNL d   1      -9.604   3.411  -5.942 -0.22 +0.03    +0.139 C 
DOCKED: ATOM     35  O   UNL d   1      -8.678   4.198  -5.827 -0.53 -0.52    -0.650 OA
DOCKED: BRANCH  34  36
DOCKED: ATOM     36  O   UNL d   1     -10.490   3.586  -6.944 +0.05 -0.16    -0.776 OA
DOCKED: ATOM     37  H   UNL d   1     -10.223   3.908  -7.812 +0.03 +0.05    +0.167 HD
DOCKED: ENDBRANCH  34  36
DOCKED: ENDBRANCH  33  34
DOCKED: ENDBRANCH  32  33
DOCKED: ENDBRANCH   6  32
DOCKED: BRANCH  22  38
DOCKED: ATOM     38  C   UNL d   1      -8.446   1.212  -8.994 -0.20 +0.00    +0.052 C 
DOCKED: BRANCH  38  39
DOCKED: ATOM     39  C   UNL d   1      -8.652   2.200 -10.140 -0.06 +0.01    +0.115 C 
DOCKED: BRANCH  39  40
DOCKED: ATOM     40  C   UNL d   1      -9.151   3.541  -9.662 -0.07 +0.03    +0.139 C 
DOCKED: ATOM     41  O   UNL d   1     -10.250   3.939 -10.012 +0.03 -0.11    -0.650 OA
DOCKED: BRANCH  40  42
DOCKED: ATOM     42  O   UNL d   1      -8.424   4.290  -8.811 -0.20 -0.52    -0.776 OA
DOCKED: ATOM     43  H   UNL d   1      -8.651   4.355  -7.875 +0.03 +0.14    +0.167 HD
DOCKED: ENDBRANCH  40  42
DOCKED: ENDBRANCH  39  40
DOCKED: ENDBRANCH  38  39
DOCKED: ENDBRANCH  22  38
DOCKED: BRANCH  12  44
DOCKED: ATOM     44  C   UNL d   1     -17.260  -5.323  -6.103 -0.09 +0.00    +0.004 C 
DOCKED: ATOM     45  C   UNL d   1     -17.251  -6.590  -6.515 -0.11 +0.00    +0.012 C 
DOCKED: ENDBRANCH  12  44
DOCKED: BRANCH  17  46
DOCKED: ATOM     46  C   UNL d   1     -11.460  -5.492 -11.878 -0.16 -0.00    +0.004 C 
DOCKED: ATOM     47  C   UNL d   1     -11.286  -6.760 -12.273 -0.19 -0.00    +0.012 C 
DOCKED: ENDBRANCH  17  46
DOCKED: TORSDOF 10
DOCKED: TER
DOCKED: ENDMDL
________________________________________________________________________________


	BEGINNING GENETIC ALGORITHM DOCKING 44 of 100
Run: 44 Seed: 2062676002 1383152527 [ Run 44 of 100 GA/GALS ]
Beginning LAMARCKIAN GENETIC ALGORITHM (LGA), with a maximum of 25000000 energy evaluations.

Final-Value: -9.763


	FINAL GENETIC ALGORITHM DOCKED STATE
	_______________________________________________


Detailed state:  trans -4.759 -15.598 -16.292 quatxyzw 0.531292 0.138573 0.781270 -0.296891 center 8.287 34.468 -0.670 ntor 10 18.6816 -107.5257 -34.6102 -158.0903 3.6458 -145.8528 -99.9087 -85.2050 175.0429 147.7247
State:	 -4.759 -15.598 -16.292   0.556  0.145  0.818 -145.458     18.68 -107.53  -34.61 -158.09    3.65 -145.85  -99.91  -85.20  175.04  147.72

DOCKED: MODEL       44
DOCKED: USER    Run = 44
DOCKED: USER    DPF = D:/Protein_go_brrr/autodock/final/mut_Y35F/heme_O2/dock.dpf
DOCKED: USER  
DOCKED: USER    Estimated Free Energy of Binding    =   -6.25 kcal/mol  [=(1)+(2)+(3)-(4)]
DOCKED: USER    Estimated Inhibition Constant, Ki   =   26.19 uM (micromolar)  [Temperature = 298.15 K]
DOCKED: USER    
DOCKED: USER    (1) Final Intermolecular Energy     =   -9.23 kcal/mol
DOCKED: USER        vdW + Hbond + desolv Energy     =   -6.19 kcal/mol
DOCKED: USER        Electrostatic Energy            =   -3.04 kcal/mol
DOCKED: USER    (2) Final Total Internal Energy     =   -0.53 kcal/mol
DOCKED: USER    (3) Torsional Free Energy           =   +2.98 kcal/mol
DOCKED: USER    (4) Unbound System's Energy  [=(2)] =   -0.53 kcal/mol
DOCKED: USER    
DOCKED: USER    
DOCKED: USER    NEWDPF move heme_O2_opt.pdbqt
DOCKED: USER    NEWDPF about 8.287000 34.468000 -0.670000
DOCKED: USER    NEWDPF tran0 -4.758539 -15.597825 -16.292343
DOCKED: USER    NEWDPF quaternion0 0.531292 0.138573 0.781270 -0.296891
DOCKED: USER    NEWDPF axisangle0 0.556378 0.145116 0.818159 -145.458127
DOCKED: USER    NEWDPF quat0 0.556378 0.145116 0.818159 -145.458127
DOCKED: USER    NEWDPF dihe0 18.68 -107.53 -34.61 -158.09 3.65 -145.85 -99.91 -85.20 175.04 147.72 
DOCKED: USER  keepresnum = 1 
DOCKED: USER  
DOCKED: REMARK  10 active torsions:
DOCKED: REMARK  status: ('A' for Active; 'I' for Inactive)
DOCKED: REMARK    1  A    between atoms: C_6  and  C_10 
DOCKED: REMARK    2  A    between atoms: C_10  and  C_11 
DOCKED: REMARK    3  A    between atoms: C_11  and  C_12 
DOCKED: REMARK    4  A    between atoms: C_12  and  O_14 
DOCKED: REMARK    5  A    between atoms: C_17  and  C_20 
DOCKED: REMARK    6  A    between atoms: C_24  and  C_27 
DOCKED: REMARK    7  A    between atoms: C_31  and  C_34 
DOCKED: REMARK    8  A    between atoms: C_34  and  C_35 
DOCKED: REMARK    9  A    between atoms: C_35  and  C_36 
DOCKED: REMARK   10  A    between atoms: C_36  and  O_38 
DOCKED: USER                              x       y       z     vdW  Elec       q    Type
DOCKED: USER                           _______ _______ _______ _____ _____    ______ ____
DOCKED: ROOT
DOCKED: ATOM      1  C   UNL d   1      -5.194 -17.134 -17.688 -0.07 +0.03    +0.064 A 
DOCKED: ATOM      2  C   UNL d   1      -1.253 -14.641 -16.788 -0.02 +0.00    +0.064 A 
DOCKED: ATOM      3  C   UNL d   1      -3.511 -12.129 -13.370 -0.25 -0.00    +0.064 C 
DOCKED: ATOM      4  C   UNL d   1      -7.436 -15.014 -13.958 -0.18 +0.01    +0.064 A 
DOCKED: ATOM      5  C   UNL d   1      -3.938 -16.662 -17.721 -0.06 +0.02    +0.066 A 
DOCKED: ATOM      6  C   UNL d   1      -2.954 -17.116 -18.605 -0.03 -0.01    -0.021 A 
DOCKED: ATOM      7  C   UNL d   1      -1.801 -16.425 -18.317 -0.01 -0.00    -0.025 A 
DOCKED: ATOM      8  C   UNL d   1      -2.124 -15.535 -17.296 -0.02 +0.01    +0.066 A 
DOCKED: ATOM      9  C   UNL d   1      -0.463 -16.655 -18.986 -0.00 +0.01    +0.051 C 
DOCKED: ATOM     10  C   UNL d   1      -1.540 -13.668 -15.734 -0.04 +0.00    +0.066 A 
DOCKED: ATOM     11  C   UNL d   1      -0.650 -12.655 -15.359 -0.07 -0.00    -0.021 A 
DOCKED: ATOM     12  C   UNL d   1      -1.291 -11.909 -14.386 -0.17 -0.00    +0.000 A 
DOCKED: ATOM     13  C   UNL d   1      -2.559 -12.530 -14.212 -0.15 -0.00    +0.070 A 
DOCKED: ATOM     14  C   UNL d   1       0.741 -12.394 -15.923 -0.07 +0.00    +0.052 C 
DOCKED: ATOM     15  C   UNL d   1      -4.793 -12.751 -13.138 -0.18 -0.01    +0.066 A 
DOCKED: ATOM     16  C   UNL d   1      -5.680 -12.381 -12.127 -0.26 +0.01    -0.021 A 
DOCKED: ATOM     17  C   UNL d   1      -6.806 -13.190 -12.274 -0.35 -0.00    +0.000 A 
DOCKED: ATOM     18  C   UNL d   1      -6.519 -14.003 -13.380 -0.23 -0.00    +0.070 A 
DOCKED: ATOM     19  C   UNL d   1      -5.353 -11.337 -11.088 -0.44 -0.01    +0.052 C 
DOCKED: ATOM     20  C   UNL d   1      -7.176 -15.839 -14.990 -0.13 +0.02    +0.066 A 
DOCKED: ATOM     21  C   UNL d   1      -8.087 -16.760 -15.502 -0.11 -0.01    -0.025 A 
DOCKED: ATOM     22  C   UNL d   1      -7.475 -17.354 -16.582 -0.10 -0.01    -0.021 A 
DOCKED: ATOM     23  C   UNL d   1      -6.202 -16.785 -16.680 -0.09 +0.03    +0.066 A 
DOCKED: ATOM     24  C   UNL d   1      -9.469 -17.059 -14.983 -0.08 +0.01    +0.051 C 
DOCKED: ATOM     25  N   UNL d   1      -3.423 -15.727 -16.886 -0.03 -0.05    -0.248 N 
DOCKED: ATOM     26  N   UNL d   1      -2.700 -13.602 -15.032 -0.05 -0.02    -0.248 N 
DOCKED: ATOM     27  N   UNL d   1      -5.264 -13.774 -13.845 -0.14 -0.01    -0.248 N 
DOCKED: ATOM     28  N   UNL d   1      -6.008 -15.897 -15.682 -0.09 -0.07    -0.248 N 
DOCKED: ATOM     29 FE   UNL d   1      -4.367 -14.757 -15.357 -0.02 +0.00    +0.000 Fe
DOCKED: ATOM     30  O   UNL d   1      -3.247 -15.730 -14.887 -0.22 +0.00    +0.000 OA
DOCKED: ATOM     31  O   UNL d   1      -4.593 -15.636 -14.073 -0.29 +0.00    +0.000 OA
DOCKED: ENDROOT
DOCKED: BRANCH   6  32
DOCKED: ATOM     32  C   UNL d   1      -3.052 -18.250 -19.592 -0.02 +0.01    +0.052 C 
DOCKED: BRANCH  32  33
DOCKED: ATOM     33  C   UNL d   1      -2.380 -19.527 -19.096 -0.03 +0.05    +0.115 C 
DOCKED: BRANCH  33  34
DOCKED: ATOM     34  C   UNL d   1      -3.225 -20.267 -18.089 +0.01 +0.15    +0.139 C 
DOCKED: ATOM     35  O   UNL d   1      -2.684 -20.896 -17.194 -0.07 -0.84    -0.650 OA
DOCKED: BRANCH  34  36
DOCKED: ATOM     36  O   UNL d   1      -4.572 -20.276 -18.171 -0.35 -1.25    -0.776 OA
DOCKED: ATOM     37  H   UNL d   1      -5.035 -20.054 -18.987 +0.00 +0.14    +0.167 HD
DOCKED: ENDBRANCH  34  36
DOCKED: ENDBRANCH  33  34
DOCKED: ENDBRANCH  32  33
DOCKED: ENDBRANCH   6  32
DOCKED: BRANCH  22  38
DOCKED: ATOM     38  C   UNL d   1      -8.063 -18.453 -17.430 -0.07 +0.02    +0.052 C 
DOCKED: BRANCH  38  39
DOCKED: ATOM     39  C   UNL d   1      -7.350 -19.788 -17.228 +0.01 +0.11    +0.115 C 
DOCKED: BRANCH  39  40
DOCKED: ATOM     40  C   UNL d   1      -8.020 -20.647 -16.185 -0.05 +0.14    +0.139 C 
DOCKED: ATOM     41  O   UNL d   1      -9.006 -20.230 -15.598 -0.03 -0.36    -0.650 OA
DOCKED: BRANCH  40  42
DOCKED: ATOM     42  O   UNL d   1      -7.580 -21.893 -15.923 -0.20 -1.30    -0.776 OA
DOCKED: ATOM     43  H   UNL d   1      -8.057 -22.672 -16.235 +0.00 +0.15    +0.167 HD
DOCKED: ENDBRANCH  40  42
DOCKED: ENDBRANCH  39  40
DOCKED: ENDBRANCH  38  39
DOCKED: ENDBRANCH  22  38
DOCKED: BRANCH  12  44
DOCKED: ATOM     44  C   UNL d   1      -0.638 -10.707 -13.736 -0.30 -0.00    +0.004 C 
DOCKED: ATOM     45  C   UNL d   1      -1.207  -9.552 -13.394 -0.30 -0.00    +0.012 C 
DOCKED: ENDBRANCH  12  44
DOCKED: BRANCH  17  46
DOCKED: ATOM     46  C   UNL d   1      -8.061 -13.296 -11.450 -0.39 -0.00    +0.004 C 
DOCKED: ATOM     47  C   UNL d   1      -8.983 -14.268 -11.465 -0.44 +0.00    +0.012 C 
DOCKED: ENDBRANCH  17  46
DOCKED: TORSDOF 10
DOCKED: TER
DOCKED: ENDMDL
________________________________________________________________________________


	BEGINNING GENETIC ALGORITHM DOCKING 45 of 100
Run: 45 Seed: 1676111770 1077326992 [ Run 45 of 100 GA/GALS ]
Beginning LAMARCKIAN GENETIC ALGORITHM (LGA), with a maximum of 25000000 energy evaluations.

Final-Value: -9.230


	FINAL GENETIC ALGORITHM DOCKED STATE
	_______________________________________________


Detailed state:  trans -17.267 3.409 5.881 quatxyzw -0.220157 0.972810 -0.056177 -0.044908 center 8.287 34.468 -0.670 ntor 10 27.9052 172.2909 -45.2657 122.4661 48.4346 160.8651 -1.0700 67.2521 -15.6003 138.2101
State:	-17.267   3.409   5.881  -0.220  0.974 -0.056 -174.852     27.91  172.29  -45.27  122.47   48.43  160.87   -1.07   67.25  -15.60  138.21

DOCKED: MODEL       45
DOCKED: USER    Run = 45
DOCKED: USER    DPF = D:/Protein_go_brrr/autodock/final/mut_Y35F/heme_O2/dock.dpf
DOCKED: USER  
DOCKED: USER    Estimated Free Energy of Binding    =   -4.01 kcal/mol  [=(1)+(2)+(3)-(4)]
DOCKED: USER    Estimated Inhibition Constant, Ki   =    1.14 mM (millimolar)  [Temperature = 298.15 K]
DOCKED: USER    
DOCKED: USER    (1) Final Intermolecular Energy     =   -7.00 kcal/mol
DOCKED: USER        vdW + Hbond + desolv Energy     =   -4.84 kcal/mol
DOCKED: USER        Electrostatic Energy            =   -2.16 kcal/mol
DOCKED: USER    (2) Final Total Internal Energy     =   -2.23 kcal/mol
DOCKED: USER    (3) Torsional Free Energy           =   +2.98 kcal/mol
DOCKED: USER    (4) Unbound System's Energy  [=(2)] =   -2.23 kcal/mol
DOCKED: USER    
DOCKED: USER    
DOCKED: USER    NEWDPF move heme_O2_opt.pdbqt
DOCKED: USER    NEWDPF about 8.287000 34.468000 -0.670000
DOCKED: USER    NEWDPF tran0 -17.266799 3.408929 5.880626
DOCKED: USER    NEWDPF quaternion0 -0.220157 0.972810 -0.056177 -0.044908
DOCKED: USER    NEWDPF axisangle0 -0.220379 0.973792 -0.056233 -174.852139
DOCKED: USER    NEWDPF quat0 -0.220379 0.973792 -0.056233 -174.852139
DOCKED: USER    NEWDPF dihe0 27.91 172.29 -45.27 122.47 48.43 160.87 -1.07 67.25 -15.60 138.21 
DOCKED: USER  keepresnum = 1 
DOCKED: USER  
DOCKED: REMARK  10 active torsions:
DOCKED: REMARK  status: ('A' for Active; 'I' for Inactive)
DOCKED: REMARK    1  A    between atoms: C_6  and  C_10 
DOCKED: REMARK    2  A    between atoms: C_10  and  C_11 
DOCKED: REMARK    3  A    between atoms: C_11  and  C_12 
DOCKED: REMARK    4  A    between atoms: C_12  and  O_14 
DOCKED: REMARK    5  A    between atoms: C_17  and  C_20 
DOCKED: REMARK    6  A    between atoms: C_24  and  C_27 
DOCKED: REMARK    7  A    between atoms: C_31  and  C_34 
DOCKED: REMARK    8  A    between atoms: C_34  and  C_35 
DOCKED: REMARK    9  A    between atoms: C_35  and  C_36 
DOCKED: REMARK   10  A    between atoms: C_36  and  O_38 
DOCKED: USER                              x       y       z     vdW  Elec       q    Type
DOCKED: USER                           _______ _______ _______ _____ _____    ______ ____
DOCKED: ROOT
DOCKED: ATOM      1  C   UNL d   1     -15.930   4.831   6.712 -0.13 +0.05    +0.064 A 
DOCKED: ATOM      2  C   UNL d   1     -15.417   1.544   3.322 -0.22 +0.02    +0.064 A 
DOCKED: ATOM      3  C   UNL d   1     -19.966   0.106   3.898 -0.11 +0.01    +0.064 C 
DOCKED: ATOM      4  C   UNL d   1     -20.648   3.800   7.053 -0.07 +0.01    +0.064 A 
DOCKED: ATOM      5  C   UNL d   1     -15.420   4.056   5.741 -0.10 +0.04    +0.066 A 
DOCKED: ATOM      6  C   UNL d   1     -14.101   4.138   5.286 -0.19 -0.01    -0.021 A 
DOCKED: ATOM      7  C   UNL d   1     -13.963   3.216   4.275 -0.23 -0.01    -0.025 A 
DOCKED: ATOM      8  C   UNL d   1     -15.188   2.563   4.173 -0.16 +0.02    +0.066 A 
DOCKED: ATOM      9  C   UNL d   1     -12.712   3.020   3.447 -0.38 +0.02    +0.051 C 
DOCKED: ATOM     10  C   UNL d   1     -16.673   0.806   3.185 -0.22 +0.02    +0.066 A 
DOCKED: ATOM     11  C   UNL d   1     -16.806  -0.348   2.405 -0.30 -0.01    -0.021 A 
DOCKED: ATOM     12  C   UNL d   1     -18.106  -0.788   2.572 -0.24 +0.00    +0.000 A 
DOCKED: ATOM     13  C   UNL d   1     -18.709   0.150   3.456 -0.06 +0.01    +0.070 A 
DOCKED: ATOM     14  C   UNL d   1     -15.732  -1.017   1.556 -0.14 +0.02    +0.052 C 
DOCKED: ATOM     15  C   UNL d   1     -20.623   1.054   4.765 -0.09 +0.01    +0.066 A 
DOCKED: ATOM     16  C   UNL d   1     -21.986   1.042   5.060 -0.08 -0.00    -0.021 A 
DOCKED: ATOM     17  C   UNL d   1     -22.204   2.087   5.957 -0.06 +0.00    +0.000 A 
DOCKED: ATOM     18  C   UNL d   1     -20.941   2.665   6.146 -0.08 +0.01    +0.070 A 
DOCKED: ATOM     19  C   UNL d   1     -22.957   0.079   4.424 -0.04 +0.00    +0.052 C 
DOCKED: ATOM     20  C   UNL d   1     -19.457   4.406   7.225 -0.07 +0.02    +0.066 A 
DOCKED: ATOM     21  C   UNL d   1     -19.238   5.461   8.107 -0.03 -0.01    -0.025 A 
DOCKED: ATOM     22  C   UNL d   1     -17.894   5.749   8.043 -0.03 -0.01    -0.021 A 
DOCKED: ATOM     23  C   UNL d   1     -17.343   4.869   7.107 -0.08 +0.03    +0.066 A 
DOCKED: ATOM     24  C   UNL d   1     -20.261   6.159   8.965 -0.01 +0.01    +0.051 C 
DOCKED: ATOM     25  N   UNL d   1     -16.104   3.125   5.032 -0.11 -0.08    -0.248 N 
DOCKED: ATOM     26  N   UNL d   1     -17.831   1.119   3.820 -0.11 -0.05    -0.248 N 
DOCKED: ATOM     27  N   UNL d   1     -20.008   2.073   5.357 -0.05 -0.03    -0.248 N 
DOCKED: ATOM     28  N   UNL d   1     -18.305   4.084   6.579 -0.07 -0.08    -0.248 N 
DOCKED: ATOM     29 FE   UNL d   1     -18.073   2.612   5.210 -0.04 +0.00    +0.000 Fe
DOCKED: ATOM     30  O   UNL d   1     -17.727   3.318   3.866 -0.08 +0.00    +0.000 OA
DOCKED: ATOM     31  O   UNL d   1     -19.074   3.664   4.606 -0.07 +0.00    +0.000 OA
DOCKED: ENDROOT
DOCKED: BRANCH   6  32
DOCKED: ATOM     32  C   UNL d   1     -13.046   5.136   5.688 -0.21 +0.05    +0.052 C 
DOCKED: BRANCH  32  33
DOCKED: ATOM     33  C   UNL d   1     -12.585   4.961   7.132 -0.12 +0.19    +0.115 C 
DOCKED: BRANCH  33  34
DOCKED: ATOM     34  C   UNL d   1     -11.474   5.913   7.500 -0.32 +0.17    +0.139 C 
DOCKED: ATOM     35  O   UNL d   1     -10.324   5.507   7.551 -0.08 -0.61    -0.650 OA
DOCKED: BRANCH  34  36
DOCKED: ATOM     36  O   UNL d   1     -11.725   7.204   7.803 +0.13 -0.94    -0.776 OA
DOCKED: ATOM     37  H   UNL d   1     -12.565   7.485   8.183 +0.06 +0.27    +0.167 HD
DOCKED: ENDBRANCH  34  36
DOCKED: ENDBRANCH  33  34
DOCKED: ENDBRANCH  32  33
DOCKED: ENDBRANCH   6  32
DOCKED: BRANCH  22  38
DOCKED: ATOM     38  C   UNL d   1     -17.196   6.854   8.794 -0.02 +0.03    +0.052 C 
DOCKED: BRANCH  38  39
DOCKED: ATOM     39  C   UNL d   1     -16.528   7.860   7.861 -0.01 +0.06    +0.115 C 
DOCKED: BRANCH  39  40
DOCKED: ATOM     40  C   UNL d   1     -15.024   7.844   7.976 -0.06 +0.12    +0.139 C 
DOCKED: ATOM     41  O   UNL d   1     -14.498   7.996   9.067 -0.10 -1.06    -0.650 OA
DOCKED: BRANCH  40  42
DOCKED: ATOM     42  O   UNL d   1     -14.246   7.611   6.902 +0.06 -0.57    -0.776 OA
DOCKED: ATOM     43  H   UNL d   1     -13.284   7.668   6.953 +0.05 +0.14    +0.167 HD
DOCKED: ENDBRANCH  40  42
DOCKED: ENDBRANCH  39  40
DOCKED: ENDBRANCH  38  39
DOCKED: ENDBRANCH  22  38
DOCKED: BRANCH  12  44
DOCKED: ATOM     44  C   UNL d   1     -18.630  -2.031   1.882 -0.27 +0.00    +0.004 C 
DOCKED: ATOM     45  C   UNL d   1     -19.289  -3.052   2.426 -0.28 +0.00    +0.012 C 
DOCKED: ENDBRANCH  12  44
DOCKED: BRANCH  17  46
DOCKED: ATOM     46  C   UNL d   1     -23.472   2.604   6.583 -0.02 +0.00    +0.004 C 
DOCKED: ATOM     47  C   UNL d   1     -23.815   2.608   7.878 -0.01 +0.00    +0.012 C 
DOCKED: ENDBRANCH  17  46
DOCKED: TORSDOF 10
DOCKED: TER
DOCKED: ENDMDL
________________________________________________________________________________


	BEGINNING GENETIC ALGORITHM DOCKING 46 of 100
Run: 46 Seed: 340295700 1617659341 [ Run 46 of 100 GA/GALS ]
Beginning LAMARCKIAN GENETIC ALGORITHM (LGA), with a maximum of 25000000 energy evaluations.

Final-Value: -10.237


	FINAL GENETIC ALGORITHM DOCKED STATE
	_______________________________________________


Detailed state:  trans -10.689 0.195 -6.785 quatxyzw -0.272446 0.911131 -0.070562 0.301056 center 8.287 34.468 -0.670 ntor 10 24.2493 -49.4950 64.3797 159.2171 -134.3910 -41.6889 -67.3979 180.0000 -157.1412 -180.0000
State:	-10.689   0.195  -6.785  -0.286  0.955 -0.074 144.958     24.25  -49.50   64.38  159.22 -134.39  -41.69  -67.40  180.00 -157.14 -180.00

DOCKED: MODEL       46
DOCKED: USER    Run = 46
DOCKED: USER    DPF = D:/Protein_go_brrr/autodock/final/mut_Y35F/heme_O2/dock.dpf
DOCKED: USER  
DOCKED: USER    Estimated Free Energy of Binding    =   -5.42 kcal/mol  [=(1)+(2)+(3)-(4)]
DOCKED: USER    Estimated Inhibition Constant, Ki   =  106.18 uM (micromolar)  [Temperature = 298.15 K]
DOCKED: USER    
DOCKED: USER    (1) Final Intermolecular Energy     =   -8.40 kcal/mol
DOCKED: USER        vdW + Hbond + desolv Energy     =   -7.46 kcal/mol
DOCKED: USER        Electrostatic Energy            =   -0.94 kcal/mol
DOCKED: USER    (2) Final Total Internal Energy     =   -1.83 kcal/mol
DOCKED: USER    (3) Torsional Free Energy           =   +2.98 kcal/mol
DOCKED: USER    (4) Unbound System's Energy  [=(2)] =   -1.83 kcal/mol
DOCKED: USER    
DOCKED: USER    
DOCKED: USER    NEWDPF move heme_O2_opt.pdbqt
DOCKED: USER    NEWDPF about 8.287000 34.468000 -0.670000
DOCKED: USER    NEWDPF tran0 -10.689127 0.195424 -6.785118
DOCKED: USER    NEWDPF quaternion0 -0.272446 0.911131 -0.070562 0.301056
DOCKED: USER    NEWDPF axisangle0 -0.285701 0.955458 -0.073995 144.957874
DOCKED: USER    NEWDPF quat0 -0.285701 0.955458 -0.073995 144.957874
DOCKED: USER    NEWDPF dihe0 24.25 -49.50 64.38 159.22 -134.39 -41.69 -67.40 180.00 -157.14 -180.00 
DOCKED: USER  keepresnum = 1 
DOCKED: USER  
DOCKED: REMARK  10 active torsions:
DOCKED: REMARK  status: ('A' for Active; 'I' for Inactive)
DOCKED: REMARK    1  A    between atoms: C_6  and  C_10 
DOCKED: REMARK    2  A    between atoms: C_10  and  C_11 
DOCKED: REMARK    3  A    between atoms: C_11  and  C_12 
DOCKED: REMARK    4  A    between atoms: C_12  and  O_14 
DOCKED: REMARK    5  A    between atoms: C_17  and  C_20 
DOCKED: REMARK    6  A    between atoms: C_24  and  C_27 
DOCKED: REMARK    7  A    between atoms: C_31  and  C_34 
DOCKED: REMARK    8  A    between atoms: C_34  and  C_35 
DOCKED: REMARK    9  A    between atoms: C_35  and  C_36 
DOCKED: REMARK   10  A    between atoms: C_36  and  O_38 
DOCKED: USER                              x       y       z     vdW  Elec       q    Type
DOCKED: USER                           _______ _______ _______ _____ _____    ______ ____
DOCKED: ROOT
DOCKED: ATOM      1  C   UNL d   1      -9.352   1.785  -7.215 -0.21 -0.00    +0.064 A 
DOCKED: ATOM      2  C   UNL d   1     -10.561  -2.128  -9.620 -0.17 +0.01    +0.064 A 
DOCKED: ATOM      3  C   UNL d   1     -13.513  -3.501  -6.084 -0.19 +0.01    +0.064 C 
DOCKED: ATOM      4  C   UNL d   1     -12.640   0.759  -3.812 -0.22 +0.00    +0.064 A 
DOCKED: ATOM      5  C   UNL d   1      -9.441   0.834  -8.158 -0.13 +0.00    +0.066 A 
DOCKED: ATOM      6  C   UNL d   1      -8.714   0.844  -9.351 -0.15 -0.00    -0.021 A 
DOCKED: ATOM      7  C   UNL d   1      -9.095  -0.266 -10.068 -0.11 -0.00    -0.025 A 
DOCKED: ATOM      8  C   UNL d   1     -10.010  -0.950  -9.271 -0.13 +0.01    +0.066 A 
DOCKED: ATOM      9  C   UNL d   1      -8.609  -0.608 -11.459 -0.06 +0.00    +0.051 C 
DOCKED: ATOM     10  C   UNL d   1     -11.508  -2.903  -8.816 -0.21 +0.01    +0.066 A 
DOCKED: ATOM     11  C   UNL d   1     -11.923  -4.196  -9.151 -0.23 -0.00    -0.021 A 
DOCKED: ATOM     12  C   UNL d   1     -12.761  -4.616  -8.134 -0.32 +0.00    +0.000 A 
DOCKED: ATOM     13  C   UNL d   1     -12.820  -3.526  -7.223 -0.25 +0.01    +0.070 A 
DOCKED: ATOM     14  C   UNL d   1     -11.516  -5.008 -10.375 -0.07 -0.00    +0.052 C 
DOCKED: ATOM     15  C   UNL d   1     -13.627  -2.405  -5.152 -0.23 +0.01    +0.066 A 
DOCKED: ATOM     16  C   UNL d   1     -14.497  -2.381  -4.063 -0.30 -0.00    -0.021 A 
DOCKED: ATOM     17  C   UNL d   1     -14.267  -1.175  -3.401 -0.28 +0.00    +0.000 A 
DOCKED: ATOM     18  C   UNL d   1     -13.258  -0.546  -4.144 -0.21 +0.01    +0.070 A 
DOCKED: ATOM     19  C   UNL d   1     -15.499  -3.473  -3.786 -0.27 +0.01    +0.052 C 
DOCKED: ATOM     20  C   UNL d   1     -11.702   1.410  -4.527 -0.20 +0.00    +0.066 A 
DOCKED: ATOM     21  C   UNL d   1     -11.144   2.630  -4.154 -0.18 -0.00    -0.025 A 
DOCKED: ATOM     22  C   UNL d   1     -10.185   2.924  -5.098 -0.21 -0.00    -0.021 A 
DOCKED: ATOM     23  C   UNL d   1     -10.207   1.878  -6.025 -0.19 -0.00    +0.066 A 
DOCKED: ATOM     24  C   UNL d   1     -11.509   3.473  -2.960 -0.09 +0.00    +0.051 C 
DOCKED: ATOM     25  N   UNL d   1     -10.271  -0.238  -8.123 -0.08 -0.01    -0.248 N 
DOCKED: ATOM     26  N   UNL d   1     -12.059  -2.486  -7.648 -0.14 -0.04    -0.248 N 
DOCKED: ATOM     27  N   UNL d   1     -12.935  -1.272  -5.245 -0.04 -0.03    -0.248 N 
DOCKED: ATOM     28  N   UNL d   1     -11.161   0.982  -5.699 -0.14 +0.00    -0.248 N 
DOCKED: ATOM     29 FE   UNL d   1     -11.609  -0.740  -6.664 -0.05 +0.00    +0.000 Fe
DOCKED: ATOM     30  O   UNL d   1     -12.273  -0.324  -8.009 -0.12 +0.00    +0.000 OA
DOCKED: ATOM     31  O   UNL d   1     -12.910   0.143  -6.646 -0.12 +0.00    +0.000 OA
DOCKED: ENDROOT
DOCKED: BRANCH   6  32
DOCKED: ATOM     32  C   UNL d   1      -7.797   1.924  -9.864 -0.14 +0.01    +0.052 C 
DOCKED: BRANCH  32  33
DOCKED: ATOM     33  C   UNL d   1      -8.551   3.155 -10.359 -0.06 +0.02    +0.115 C 
DOCKED: BRANCH  33  34
DOCKED: ATOM     34  C   UNL d   1      -8.353   4.350  -9.460 -0.05 +0.07    +0.139 C 
DOCKED: ATOM     35  O   UNL d   1      -7.293   4.954  -9.483 -0.55 -0.61    -0.650 OA
DOCKED: BRANCH  34  36
DOCKED: ATOM     36  O   UNL d   1      -9.316   4.754  -8.606 +0.00 -0.43    -0.776 OA
DOCKED: ATOM     37  H   UNL d   1      -9.991   4.150  -8.273 +0.03 +0.05    +0.167 HD
DOCKED: ENDBRANCH  34  36
DOCKED: ENDBRANCH  33  34
DOCKED: ENDBRANCH  32  33
DOCKED: ENDBRANCH   6  32
DOCKED: BRANCH  22  38
DOCKED: ATOM     38  C   UNL d   1      -9.345   4.175  -5.136 -0.24 +0.02    +0.052 C 
DOCKED: BRANCH  38  39
DOCKED: ATOM     39  C   UNL d   1     -10.113   5.375  -5.684 -0.09 +0.05    +0.115 C 
DOCKED: BRANCH  39  40
DOCKED: ATOM     40  C   UNL d   1     -11.523   5.023  -6.086 -0.05 +0.03    +0.139 C 
DOCKED: ATOM     41  O   UNL d   1     -12.455   5.331  -5.360 +0.03 -0.07    -0.650 OA
DOCKED: BRANCH  40  42
DOCKED: ATOM     42  O   UNL d   1     -11.781   4.417  -7.261 +0.05 -0.11    -0.776 OA
DOCKED: ATOM     43  H   UNL d   1     -11.386   4.725  -8.085 +0.02 +0.03    +0.167 HD
DOCKED: ENDBRANCH  40  42
DOCKED: ENDBRANCH  39  40
DOCKED: ENDBRANCH  38  39
DOCKED: ENDBRANCH  22  38
DOCKED: BRANCH  12  44
DOCKED: ATOM     44  C   UNL d   1     -13.407  -5.986  -8.140 -0.38 +0.00    +0.004 C 
DOCKED: ATOM     45  C   UNL d   1     -14.708  -6.277  -8.134 -0.26 +0.00    +0.012 C 
DOCKED: ENDBRANCH  12  44
DOCKED: BRANCH  17  46
DOCKED: ATOM     46  C   UNL d   1     -14.938  -0.563  -2.200 -0.20 +0.00    +0.004 C 
DOCKED: ATOM     47  C   UNL d   1     -14.421   0.293  -1.309 -0.26 +0.00    +0.012 C 
DOCKED: ENDBRANCH  17  46
DOCKED: TORSDOF 10
DOCKED: TER
DOCKED: ENDMDL
________________________________________________________________________________


	BEGINNING GENETIC ALGORITHM DOCKING 47 of 100
Run: 47 Seed: 267434437 423949716 [ Run 47 of 100 GA/GALS ]
Beginning LAMARCKIAN GENETIC ALGORITHM (LGA), with a maximum of 25000000 energy evaluations.

Final-Value: -9.607


	FINAL GENETIC ALGORITHM DOCKED STATE
	_______________________________________________


Detailed state:  trans 17.929 -4.998 1.319 quatxyzw -0.403243 -0.364947 0.069733 -0.836269 center 8.287 34.468 -0.670 ntor 10 86.1085 -75.4643 53.8124 -108.6866 82.5371 -30.8004 49.3742 15.7813 -29.0629 11.1119
State:	 17.929  -4.998   1.319  -0.735 -0.666  0.127 -66.504     86.11  -75.46   53.81 -108.69   82.54  -30.80   49.37   15.78  -29.06   11.11

DOCKED: MODEL       47
DOCKED: USER    Run = 47
DOCKED: USER    DPF = D:/Protein_go_brrr/autodock/final/mut_Y35F/heme_O2/dock.dpf
DOCKED: USER  
DOCKED: USER    Estimated Free Energy of Binding    =   -5.17 kcal/mol  [=(1)+(2)+(3)-(4)]
DOCKED: USER    Estimated Inhibition Constant, Ki   =  161.39 uM (micromolar)  [Temperature = 298.15 K]
DOCKED: USER    
DOCKED: USER    (1) Final Intermolecular Energy     =   -8.16 kcal/mol
DOCKED: USER        vdW + Hbond + desolv Energy     =   -6.37 kcal/mol
DOCKED: USER        Electrostatic Energy            =   -1.79 kcal/mol
DOCKED: USER    (2) Final Total Internal Energy     =   -1.45 kcal/mol
DOCKED: USER    (3) Torsional Free Energy           =   +2.98 kcal/mol
DOCKED: USER    (4) Unbound System's Energy  [=(2)] =   -1.45 kcal/mol
DOCKED: USER    
DOCKED: USER    
DOCKED: USER    NEWDPF move heme_O2_opt.pdbqt
DOCKED: USER    NEWDPF about 8.287000 34.468000 -0.670000
DOCKED: USER    NEWDPF tran0 17.928809 -4.998146 1.319301
DOCKED: USER    NEWDPF quaternion0 -0.403243 -0.364947 0.069733 -0.836269
DOCKED: USER    NEWDPF axisangle0 -0.735417 -0.665573 0.127176 -66.503552
DOCKED: USER    NEWDPF quat0 -0.735417 -0.665573 0.127176 -66.503552
DOCKED: USER    NEWDPF dihe0 86.11 -75.46 53.81 -108.69 82.54 -30.80 49.37 15.78 -29.06 11.11 
DOCKED: USER  keepresnum = 1 
DOCKED: USER  
DOCKED: REMARK  10 active torsions:
DOCKED: REMARK  status: ('A' for Active; 'I' for Inactive)
DOCKED: REMARK    1  A    between atoms: C_6  and  C_10 
DOCKED: REMARK    2  A    between atoms: C_10  and  C_11 
DOCKED: REMARK    3  A    between atoms: C_11  and  C_12 
DOCKED: REMARK    4  A    between atoms: C_12  and  O_14 
DOCKED: REMARK    5  A    between atoms: C_17  and  C_20 
DOCKED: REMARK    6  A    between atoms: C_24  and  C_27 
DOCKED: REMARK    7  A    between atoms: C_31  and  C_34 
DOCKED: REMARK    8  A    between atoms: C_34  and  C_35 
DOCKED: REMARK    9  A    between atoms: C_35  and  C_36 
DOCKED: REMARK   10  A    between atoms: C_36  and  O_38 
DOCKED: USER                              x       y       z     vdW  Elec       q    Type
DOCKED: USER                           _______ _______ _______ _____ _____    ______ ____
DOCKED: ROOT
DOCKED: ATOM      1  C   UNL d   1      17.215  -5.865  -0.480 -0.14 +0.02    +0.064 A 
DOCKED: ATOM      2  C   UNL d   1      15.110  -4.884   3.663 -0.26 +0.01    +0.064 A 
DOCKED: ATOM      3  C   UNL d   1      19.230  -3.183   5.459 -0.05 +0.01    +0.064 C 
DOCKED: ATOM      4  C   UNL d   1      21.293  -3.745   1.043 -0.08 +0.01    +0.064 A 
DOCKED: ATOM      5  C   UNL d   1      16.306  -5.736   0.499 -0.20 +0.01    +0.066 A 
DOCKED: ATOM      6  C   UNL d   1      14.973  -6.141   0.389 -0.21 -0.00    -0.021 A 
DOCKED: ATOM      7  C   UNL d   1      14.352  -5.817   1.572 -0.40 -0.00    -0.025 A 
DOCKED: ATOM      8  C   UNL d   1      15.334  -5.268   2.391 -0.29 +0.01    +0.066 A 
DOCKED: ATOM      9  C   UNL d   1      12.879  -6.013   1.858 -0.39 -0.00    +0.051 C 
DOCKED: ATOM     10  C   UNL d   1      16.106  -4.323   4.577 -0.16 +0.01    +0.066 A 
DOCKED: ATOM     11  C   UNL d   1      15.860  -4.094   5.936 -0.16 -0.01    -0.021 A 
DOCKED: ATOM     12  C   UNL d   1      17.042  -3.621   6.475 -0.07 +0.00    +0.000 A 
DOCKED: ATOM     13  C   UNL d   1      17.958  -3.574   5.388 -0.06 +0.01    +0.070 A 
DOCKED: ATOM     14  C   UNL d   1      14.561  -4.344   6.693 -0.20 +0.02    +0.052 C 
DOCKED: ATOM     15  C   UNL d   1      20.179  -3.088   4.376 -0.05 +0.01    +0.066 A 
DOCKED: ATOM     16  C   UNL d   1      21.447  -2.516   4.483 -0.03 -0.00    -0.021 A 
DOCKED: ATOM     17  C   UNL d   1      22.053  -2.664   3.236 -0.05 +0.00    +0.000 A 
DOCKED: ATOM     18  C   UNL d   1      21.098  -3.326   2.451 -0.09 +0.01    +0.070 A 
DOCKED: ATOM     19  C   UNL d   1      21.939  -1.837   5.737 -0.01 +0.00    +0.052 C 
DOCKED: ATOM     20  C   UNL d   1      20.383  -4.343   0.249 -0.11 +0.01    +0.066 A 
DOCKED: ATOM     21  C   UNL d   1      20.630  -4.731  -1.065 -0.13 -0.01    -0.025 A 
DOCKED: ATOM     22  C   UNL d   1      19.488  -5.361  -1.506 -0.19 -0.01    -0.021 A 
DOCKED: ATOM     23  C   UNL d   1      18.577  -5.318  -0.447 -0.19 +0.02    +0.066 A 
DOCKED: ATOM     24  C   UNL d   1      21.890  -4.508  -1.860 -0.13 +0.01    +0.051 C 
DOCKED: ATOM     25  N   UNL d   1      16.523  -5.158   1.707 -0.15 -0.04    -0.248 N 
DOCKED: ATOM     26  N   UNL d   1      17.379  -3.999   4.236 -0.07 -0.04    -0.248 N 
DOCKED: ATOM     27  N   UNL d   1      19.941  -3.508   3.137 -0.05 -0.03    -0.248 N 
DOCKED: ATOM     28  N   UNL d   1      19.109  -4.659   0.603 -0.11 -0.05    -0.248 N 
DOCKED: ATOM     29 FE   UNL d   1      18.253  -4.330   2.407 -0.04 +0.00    +0.000 Fe
DOCKED: ATOM     30  O   UNL d   1      17.114  -3.296   2.166 -0.36 +0.00    +0.000 OA
DOCKED: ATOM     31  O   UNL d   1      18.598  -2.927   1.786 -0.34 +0.00    +0.000 OA
DOCKED: ENDROOT
DOCKED: BRANCH   6  32
DOCKED: ATOM     32  C   UNL d   1      14.272  -6.684  -0.829 -0.29 +0.01    +0.052 C 
DOCKED: BRANCH  32  33
DOCKED: ATOM     33  C   UNL d   1      14.978  -7.898  -1.427 -0.18 +0.02    +0.115 C 
DOCKED: BRANCH  33  34
DOCKED: ATOM     34  C   UNL d   1      15.136  -7.792  -2.923 -0.13 +0.08    +0.139 C 
DOCKED: ATOM     35  O   UNL d   1      14.150  -7.848  -3.640 -0.00 -0.25    -0.650 OA
DOCKED: BRANCH  34  36
DOCKED: ATOM     36  O   UNL d   1      16.352  -7.663  -3.494 -0.44 -1.01    -0.776 OA
DOCKED: ATOM     37  H   UNL d   1      16.896  -8.428  -3.715 +0.02 +0.14    +0.167 HD
DOCKED: ENDBRANCH  34  36
DOCKED: ENDBRANCH  33  34
DOCKED: ENDBRANCH  32  33
DOCKED: ENDBRANCH   6  32
DOCKED: BRANCH  22  38
DOCKED: ATOM     38  C   UNL d   1      19.269  -5.914  -2.891 -0.18 +0.04    +0.052 C 
DOCKED: BRANCH  38  39
DOCKED: ATOM     39  C   UNL d   1      19.159  -7.437  -2.899 -0.09 +0.07    +0.115 C 
DOCKED: BRANCH  39  40
DOCKED: ATOM     40  C   UNL d   1      19.293  -8.017  -4.285 -0.06 +0.09    +0.139 C 
DOCKED: ATOM     41  O   UNL d   1      20.257  -8.714  -4.559 +0.01 -0.20    -0.650 OA
DOCKED: BRANCH  40  42
DOCKED: ATOM     42  O   UNL d   1      18.339  -7.823  -5.216 -0.07 -0.99    -0.776 OA
DOCKED: ATOM     43  H   UNL d   1      17.487  -8.272  -5.167 +0.01 +0.20    +0.167 HD
DOCKED: ENDBRANCH  40  42
DOCKED: ENDBRANCH  39  40
DOCKED: ENDBRANCH  38  39
DOCKED: ENDBRANCH  22  38
DOCKED: BRANCH  12  44
DOCKED: ATOM     44  C   UNL d   1      17.170  -3.265   7.941 -0.04 +0.00    +0.004 C 
DOCKED: ATOM     45  C   UNL d   1      17.667  -2.148   8.472 -0.02 +0.00    +0.012 C 
DOCKED: ENDBRANCH  12  44
DOCKED: BRANCH  17  46
DOCKED: ATOM     46  C   UNL d   1      23.390  -2.196   2.725 -0.05 +0.00    +0.004 C 
DOCKED: ATOM     47  C   UNL d   1      23.642  -1.308   1.755 -0.08 +0.00    +0.012 C 
DOCKED: ENDBRANCH  17  46
DOCKED: TORSDOF 10
DOCKED: TER
DOCKED: ENDMDL
________________________________________________________________________________


	BEGINNING GENETIC ALGORITHM DOCKING 48 of 100
Run: 48 Seed: 665847968 573842801 [ Run 48 of 100 GA/GALS ]
Beginning LAMARCKIAN GENETIC ALGORITHM (LGA), with a maximum of 25000000 energy evaluations.

Final-Value: -9.648


	FINAL GENETIC ALGORITHM DOCKED STATE
	_______________________________________________


Detailed state:  trans 2.254 -16.391 -9.382 quatxyzw 0.706216 -0.163024 0.688164 0.033349 center 8.287 34.468 -0.670 ntor 10 -28.5060 23.5012 -35.8169 -8.6211 164.7545 12.3693 -65.5608 40.0391 -109.3320 -137.6871
State:	  2.254 -16.391  -9.382   0.707 -0.163  0.689 176.178    -28.51   23.50  -35.82   -8.62  164.75   12.37  -65.56   40.04 -109.33 -137.69

DOCKED: MODEL       48
DOCKED: USER    Run = 48
DOCKED: USER    DPF = D:/Protein_go_brrr/autodock/final/mut_Y35F/heme_O2/dock.dpf
DOCKED: USER  
DOCKED: USER    Estimated Free Energy of Binding    =   -5.50 kcal/mol  [=(1)+(2)+(3)-(4)]
DOCKED: USER    Estimated Inhibition Constant, Ki   =   92.58 uM (micromolar)  [Temperature = 298.15 K]
DOCKED: USER    
DOCKED: USER    (1) Final Intermolecular Energy     =   -8.49 kcal/mol
DOCKED: USER        vdW + Hbond + desolv Energy     =   -7.72 kcal/mol
DOCKED: USER        Electrostatic Energy            =   -0.76 kcal/mol
DOCKED: USER    (2) Final Total Internal Energy     =   -1.16 kcal/mol
DOCKED: USER    (3) Torsional Free Energy           =   +2.98 kcal/mol
DOCKED: USER    (4) Unbound System's Energy  [=(2)] =   -1.16 kcal/mol
DOCKED: USER    
DOCKED: USER    
DOCKED: USER    NEWDPF move heme_O2_opt.pdbqt
DOCKED: USER    NEWDPF about 8.287000 34.468000 -0.670000
DOCKED: USER    NEWDPF tran0 2.254453 -16.390549 -9.382187
DOCKED: USER    NEWDPF quaternion0 0.706216 -0.163024 0.688164 0.033349
DOCKED: USER    NEWDPF axisangle0 0.706609 -0.163115 0.688547 176.177725
DOCKED: USER    NEWDPF quat0 0.706609 -0.163115 0.688547 176.177725
DOCKED: USER    NEWDPF dihe0 -28.51 23.50 -35.82 -8.62 164.75 12.37 -65.56 40.04 -109.33 -137.69 
DOCKED: USER  keepresnum = 1 
DOCKED: USER  
DOCKED: REMARK  10 active torsions:
DOCKED: REMARK  status: ('A' for Active; 'I' for Inactive)
DOCKED: REMARK    1  A    between atoms: C_6  and  C_10 
DOCKED: REMARK    2  A    between atoms: C_10  and  C_11 
DOCKED: REMARK    3  A    between atoms: C_11  and  C_12 
DOCKED: REMARK    4  A    between atoms: C_12  and  O_14 
DOCKED: REMARK    5  A    between atoms: C_17  and  C_20 
DOCKED: REMARK    6  A    between atoms: C_24  and  C_27 
DOCKED: REMARK    7  A    between atoms: C_31  and  C_34 
DOCKED: REMARK    8  A    between atoms: C_34  and  C_35 
DOCKED: REMARK    9  A    between atoms: C_35  and  C_36 
DOCKED: REMARK   10  A    between atoms: C_36  and  O_38 
DOCKED: USER                              x       y       z     vdW  Elec       q    Type
DOCKED: USER                           _______ _______ _______ _____ _____    ______ ____
DOCKED: ROOT
DOCKED: ATOM      1  C   UNL d   1       1.358 -16.301 -11.302 -0.24 -0.01    +0.064 A 
DOCKED: ATOM      2  C   UNL d   1       5.504 -14.707  -9.620 -0.20 -0.02    +0.064 A 
DOCKED: ATOM      3  C   UNL d   1       4.463 -16.359  -5.229 -0.23 -0.02    +0.064 C 
DOCKED: ATOM      4  C   UNL d   1       0.406 -18.425  -7.057 -0.18 -0.05    +0.064 A 
DOCKED: ATOM      5  C   UNL d   1       2.571 -15.734 -11.204 -0.21 -0.02    +0.066 A 
DOCKED: ATOM      6  C   UNL d   1       3.231 -15.107 -12.265 -0.17 +0.01    -0.021 A 
DOCKED: ATOM      7  C   UNL d   1       4.450 -14.683 -11.790 -0.19 +0.01    -0.025 A 
DOCKED: ATOM      8  C   UNL d   1       4.481 -15.020 -10.439 -0.20 -0.02    +0.066 A 
DOCKED: ATOM      9  C   UNL d   1       5.521 -14.018 -12.626 -0.14 -0.01    +0.051 C 
DOCKED: ATOM     10  C   UNL d   1       5.583 -15.013  -8.192 -0.21 -0.03    +0.066 A 
DOCKED: ATOM     11  C   UNL d   1       6.591 -14.522  -7.354 -0.18 +0.01    -0.021 A 
DOCKED: ATOM     12  C   UNL d   1       6.298 -14.973  -6.080 -0.20 -0.00    +0.000 A 
DOCKED: ATOM     13  C   UNL d   1       5.109 -15.741  -6.218 -0.20 -0.03    +0.070 A 
DOCKED: ATOM     14  C   UNL d   1       7.768 -13.637  -7.748 -0.18 -0.05    +0.052 C 
DOCKED: ATOM     15  C   UNL d   1       3.277 -17.175  -5.333 -0.21 -0.02    +0.066 A 
DOCKED: ATOM     16  C   UNL d   1       2.743 -17.930  -4.289 -0.21 +0.01    -0.021 A 
DOCKED: ATOM     17  C   UNL d   1       1.586 -18.528  -4.787 -0.25 -0.00    +0.000 A 
DOCKED: ATOM     18  C   UNL d   1       1.498 -18.086  -6.115 -0.26 -0.04    +0.070 A 
DOCKED: ATOM     19  C   UNL d   1       3.407 -18.055  -2.941 -0.22 -0.01    +0.052 C 
DOCKED: ATOM     20  C   UNL d   1       0.314 -18.053  -8.349 -0.27 -0.03    +0.066 A 
DOCKED: ATOM     21  C   UNL d   1      -0.749 -18.389  -9.183 -0.30 +0.01    -0.025 A 
DOCKED: ATOM     22  C   UNL d   1      -0.508 -17.769 -10.389 -0.27 +0.00    -0.021 A 
DOCKED: ATOM     23  C   UNL d   1       0.707 -17.091 -10.251 -0.27 -0.02    +0.066 A 
DOCKED: ATOM     24  C   UNL d   1      -1.933 -19.259  -8.848 -0.36 -0.02    +0.051 C 
DOCKED: ATOM     25  N   UNL d   1       3.351 -15.725 -10.095 -0.13 +0.10    -0.248 N 
DOCKED: ATOM     26  N   UNL d   1       4.683 -15.764  -7.506 -0.14 +0.10    -0.248 N 
DOCKED: ATOM     27  N   UNL d   1       2.572 -17.327  -6.451 -0.09 +0.12    -0.248 N 
DOCKED: ATOM     28  N   UNL d   1       1.225 -17.304  -9.024 -0.10 +0.11    -0.248 N 
DOCKED: ATOM     29 FE   UNL d   1       2.941 -16.541  -8.268 -0.05 -0.00    +0.000 Fe
DOCKED: ATOM     30  O   UNL d   1       4.102 -17.248  -9.026 -0.13 -0.00    +0.000 OA
DOCKED: ATOM     31  O   UNL d   1       3.059 -18.108  -8.217 -0.14 -0.00    +0.000 OA
DOCKED: ENDROOT
DOCKED: BRANCH   6  32
DOCKED: ATOM     32  C   UNL d   1       2.795 -15.028 -13.705 -0.11 -0.01    +0.052 C 
DOCKED: BRANCH  32  33
DOCKED: ATOM     33  C   UNL d   1       1.876 -16.176 -14.109 -0.04 -0.00    +0.115 C 
DOCKED: BRANCH  33  34
DOCKED: ATOM     34  C   UNL d   1       0.470 -15.712 -14.401 -0.07 +0.00    +0.139 C 
DOCKED: ATOM     35  O   UNL d   1       0.246 -14.521 -14.547 +0.04 +0.00    -0.650 OA
DOCKED: BRANCH  34  36
DOCKED: ATOM     36  O   UNL d   1      -0.557 -16.583 -14.477 +0.05 -0.11    -0.776 OA
DOCKED: ATOM     37  H   UNL d   1      -0.430 -17.500 -14.746 +0.03 +0.03    +0.167 HD
DOCKED: ENDBRANCH  34  36
DOCKED: ENDBRANCH  33  34
DOCKED: ENDBRANCH  32  33
DOCKED: ENDBRANCH   6  32
DOCKED: BRANCH  22  38
DOCKED: ATOM     38  C   UNL d   1      -1.369 -17.880 -11.621 -0.12 +0.01    +0.052 C 
DOCKED: BRANCH  38  39
DOCKED: ATOM     39  C   UNL d   1      -1.982 -19.270 -11.779 -0.22 +0.04    +0.115 C 
DOCKED: BRANCH  39  40
DOCKED: ATOM     40  C   UNL d   1      -2.008 -19.729 -13.215 -0.10 +0.08    +0.139 C 
DOCKED: ATOM     41  O   UNL d   1      -2.060 -20.921 -13.470 -0.05 -0.46    -0.650 OA
DOCKED: BRANCH  40  42
DOCKED: ATOM     42  O   UNL d   1      -2.026 -18.841 -14.229 -0.02 -0.47    -0.776 OA
DOCKED: ATOM     43  H   UNL d   1      -1.660 -17.954 -14.129 +0.03 +0.07    +0.167 HD
DOCKED: ENDBRANCH  40  42
DOCKED: ENDBRANCH  39  40
DOCKED: ENDBRANCH  38  39
DOCKED: ENDBRANCH  22  38
DOCKED: BRANCH  12  44
DOCKED: ATOM     44  C   UNL d   1       7.169 -14.634  -4.888 -0.22 -0.00    +0.004 C 
DOCKED: ATOM     45  C   UNL d   1       6.779 -14.316  -3.654 -0.31 -0.01    +0.012 C 
DOCKED: ENDBRANCH  12  44
DOCKED: BRANCH  17  46
DOCKED: ATOM     46  C   UNL d   1       0.622 -19.495  -4.153 -0.22 -0.00    +0.004 C 
DOCKED: ATOM     47  C   UNL d   1       0.793 -20.229  -3.046 -0.24 -0.00    +0.012 C 
DOCKED: ENDBRANCH  17  46
DOCKED: TORSDOF 10
DOCKED: TER
DOCKED: ENDMDL
________________________________________________________________________________


	BEGINNING GENETIC ALGORITHM DOCKING 49 of 100
Run: 49 Seed: 538258163 652000936 [ Run 49 of 100 GA/GALS ]
Beginning LAMARCKIAN GENETIC ALGORITHM (LGA), with a maximum of 25000000 energy evaluations.

Final-Value: -9.134


	FINAL GENETIC ALGORITHM DOCKED STATE
	_______________________________________________


Detailed state:  trans -19.359 4.904 9.356 quatxyzw -0.142122 -0.569644 0.651450 0.480541 center 8.287 34.468 -0.670 ntor 10 100.3501 -163.7957 59.0081 -104.4483 -110.6498 122.4854 -97.3840 90.1157 164.0457 177.4397
State:	-19.359   4.904   9.356  -0.162 -0.650  0.743 122.559    100.35 -163.80   59.01 -104.45 -110.65  122.49  -97.38   90.12  164.05  177.44

DOCKED: MODEL       49
DOCKED: USER    Run = 49
DOCKED: USER    DPF = D:/Protein_go_brrr/autodock/final/mut_Y35F/heme_O2/dock.dpf
DOCKED: USER  
DOCKED: USER    Estimated Free Energy of Binding    =   -4.18 kcal/mol  [=(1)+(2)+(3)-(4)]
DOCKED: USER    Estimated Inhibition Constant, Ki   =  863.97 uM (micromolar)  [Temperature = 298.15 K]
DOCKED: USER    
DOCKED: USER    (1) Final Intermolecular Energy     =   -7.16 kcal/mol
DOCKED: USER        vdW + Hbond + desolv Energy     =   -3.58 kcal/mol
DOCKED: USER        Electrostatic Energy            =   -3.58 kcal/mol
DOCKED: USER    (2) Final Total Internal Energy     =   -1.97 kcal/mol
DOCKED: USER    (3) Torsional Free Energy           =   +2.98 kcal/mol
DOCKED: USER    (4) Unbound System's Energy  [=(2)] =   -1.97 kcal/mol
DOCKED: USER    
DOCKED: USER    
DOCKED: USER    NEWDPF move heme_O2_opt.pdbqt
DOCKED: USER    NEWDPF about 8.287000 34.468000 -0.670000
DOCKED: USER    NEWDPF tran0 -19.359283 4.904236 9.355691
DOCKED: USER    NEWDPF quaternion0 -0.142122 -0.569644 0.651450 0.480541
DOCKED: USER    NEWDPF axisangle0 -0.162060 -0.649557 0.742840 122.558541
DOCKED: USER    NEWDPF quat0 -0.162060 -0.649557 0.742840 122.558541
DOCKED: USER    NEWDPF dihe0 100.35 -163.80 59.01 -104.45 -110.65 122.49 -97.38 90.12 164.05 177.44 
DOCKED: USER  keepresnum = 1 
DOCKED: USER  
DOCKED: REMARK  10 active torsions:
DOCKED: REMARK  status: ('A' for Active; 'I' for Inactive)
DOCKED: REMARK    1  A    between atoms: C_6  and  C_10 
DOCKED: REMARK    2  A    between atoms: C_10  and  C_11 
DOCKED: REMARK    3  A    between atoms: C_11  and  C_12 
DOCKED: REMARK    4  A    between atoms: C_12  and  O_14 
DOCKED: REMARK    5  A    between atoms: C_17  and  C_20 
DOCKED: REMARK    6  A    between atoms: C_24  and  C_27 
DOCKED: REMARK    7  A    between atoms: C_31  and  C_34 
DOCKED: REMARK    8  A    between atoms: C_34  and  C_35 
DOCKED: REMARK    9  A    between atoms: C_35  and  C_36 
DOCKED: REMARK   10  A    between atoms: C_36  and  O_38 
DOCKED: USER                              x       y       z     vdW  Elec       q    Type
DOCKED: USER                           _______ _______ _______ _____ _____    ______ ____
DOCKED: ROOT
DOCKED: ATOM      1  C   UNL d   1     -18.244   6.542  10.113 -0.01 +0.02    +0.064 A 
DOCKED: ATOM      2  C   UNL d   1     -19.635   2.437  12.055 -0.11 +0.01    +0.064 A 
DOCKED: ATOM      3  C   UNL d   1     -21.866   1.165   7.993 -0.10 +0.00    +0.064 C 
DOCKED: ATOM      4  C   UNL d   1     -20.037   5.170   5.830 -0.01 +0.01    +0.064 A 
DOCKED: ATOM      5  C   UNL d   1     -18.439   5.528  10.972 -0.03 +0.02    +0.066 A 
DOCKED: ATOM      6  C   UNL d   1     -17.966   5.516  12.287 -0.04 -0.01    -0.021 A 
DOCKED: ATOM      7  C   UNL d   1     -18.331   4.309  12.837 -0.07 -0.01    -0.025 A 
DOCKED: ATOM      8  C   UNL d   1     -19.058   3.638  11.857 -0.10 +0.01    +0.066 A 
DOCKED: ATOM      9  C   UNL d   1     -17.957   3.843  14.227 -0.07 +0.01    +0.051 C 
DOCKED: ATOM     10  C   UNL d   1     -20.428   1.695  11.074 -0.13 +0.01    +0.066 A 
DOCKED: ATOM     11  C   UNL d   1     -21.140   0.530  11.382 -0.11 -0.00    -0.021 A 
DOCKED: ATOM     12  C   UNL d   1     -21.804   0.158  10.228 -0.08 +0.00    +0.000 A 
DOCKED: ATOM     13  C   UNL d   1     -21.442   1.131   9.256 -0.02 +0.00    +0.070 A 
DOCKED: ATOM     14  C   UNL d   1     -21.206  -0.182  12.728 -0.08 +0.00    +0.052 C 
DOCKED: ATOM     15  C   UNL d   1     -21.495   2.112   6.969 -0.10 +0.00    +0.066 A 
DOCKED: ATOM     16  C   UNL d   1     -21.843   1.998   5.623 -0.07 -0.00    -0.021 A 
DOCKED: ATOM     17  C   UNL d   1     -21.331   3.128   4.987 -0.04 +0.00    +0.000 A 
DOCKED: ATOM     18  C   UNL d   1     -20.703   3.858   6.006 -0.05 +0.01    +0.070 A 
DOCKED: ATOM     19  C   UNL d   1     -22.577   0.806   5.061 -0.06 +0.00    +0.052 C 
DOCKED: ATOM     20  C   UNL d   1     -19.387   5.876   6.776 -0.01 +0.01    +0.066 A 
DOCKED: ATOM     21  C   UNL d   1     -18.794   7.115   6.555 +0.00 -0.00    -0.025 A 
DOCKED: ATOM     22  C   UNL d   1     -18.301   7.534   7.771 +0.01 -0.01    -0.021 A 
DOCKED: ATOM     23  C   UNL d   1     -18.598   6.522   8.689 -0.00 +0.02    +0.066 A 
DOCKED: ATOM     24  C   UNL d   1     -18.698   7.861   5.249 +0.01 +0.01    +0.051 C 
DOCKED: ATOM     25  N   UNL d   1     -19.068   4.362  10.687 -0.04 -0.07    -0.248 N 
DOCKED: ATOM     26  N   UNL d   1     -20.601   2.060   9.778 -0.08 -0.03    -0.248 N 
DOCKED: ATOM     27  N   UNL d   1     -20.747   3.190   7.186 -0.07 -0.03    -0.248 N 
DOCKED: ATOM     28  N   UNL d   1     -19.218   5.496   8.070 -0.01 -0.06    -0.248 N 
DOCKED: ATOM     29 FE   UNL d   1     -19.905   3.789   8.915 -0.02 +0.00    +0.000 Fe
DOCKED: ATOM     30  O   UNL d   1     -18.647   2.963   9.311 -0.74 +0.00    +0.000 OA
DOCKED: ATOM     31  O   UNL d   1     -18.865   3.382   7.808 -0.59 +0.00    +0.000 OA
DOCKED: ENDROOT
DOCKED: BRANCH   6  32
DOCKED: ATOM     32  C   UNL d   1     -17.087   6.537  12.962 -0.03 +0.02    +0.052 C 
DOCKED: BRANCH  32  33
DOCKED: ATOM     33  C   UNL d   1     -15.696   6.000  13.283 -0.06 +0.07    +0.115 C 
DOCKED: BRANCH  33  34
DOCKED: ATOM     34  C   UNL d   1     -14.781   6.020  12.083 -0.14 +0.15    +0.139 C 
DOCKED: ATOM     35  O   UNL d   1     -13.987   6.936  11.945 -0.11 -1.31    -0.650 OA
DOCKED: BRANCH  34  36
DOCKED: ATOM     36  O   UNL d   1     -14.839   5.058  11.139 -0.08 -1.06    -0.776 OA
DOCKED: ATOM     37  H   UNL d   1     -15.293   5.193  10.299 +0.03 +0.22    +0.167 HD
DOCKED: ENDBRANCH  34  36
DOCKED: ENDBRANCH  33  34
DOCKED: ENDBRANCH  32  33
DOCKED: ENDBRANCH   6  32
DOCKED: BRANCH  22  38
DOCKED: ATOM     38  C   UNL d   1     -17.533   8.807   8.016 +0.01 +0.02    +0.052 C 
DOCKED: BRANCH  38  39
DOCKED: ATOM     39  C   UNL d   1     -16.060   8.681   7.632 -0.01 +0.06    +0.115 C 
DOCKED: BRANCH  39  40
DOCKED: ATOM     40  C   UNL d   1     -15.201   8.227   8.785 -0.03 +0.15    +0.139 C 
DOCKED: ATOM     41  O   UNL d   1     -14.653   9.055   9.495 -0.19 -1.17    -0.650 OA
DOCKED: BRANCH  40  42
DOCKED: ATOM     42  O   UNL d   1     -15.066   6.920   9.080 +0.03 -0.91    -0.776 OA
DOCKED: ATOM     43  H   UNL d   1     -14.756   6.627   9.945 +0.02 +0.25    +0.167 HD
DOCKED: ENDBRANCH  40  42
DOCKED: ENDBRANCH  39  40
DOCKED: ENDBRANCH  38  39
DOCKED: ENDBRANCH  22  38
DOCKED: BRANCH  12  44
DOCKED: ATOM     44  C   UNL d   1     -22.695  -1.065  10.172 -0.08 +0.00    +0.004 C 
DOCKED: ATOM     45  C   UNL d   1     -22.626  -2.091   9.325 -0.09 -0.00    +0.012 C 
DOCKED: ENDBRANCH  12  44
DOCKED: BRANCH  17  46
DOCKED: ATOM     46  C   UNL d   1     -21.337   3.533   3.537 -0.02 +0.00    +0.004 C 
DOCKED: ATOM     47  C   UNL d   1     -20.298   3.612   2.695 -0.01 +0.00    +0.012 C 
DOCKED: ENDBRANCH  17  46
DOCKED: TORSDOF 10
DOCKED: TER
DOCKED: ENDMDL
________________________________________________________________________________


	BEGINNING GENETIC ALGORITHM DOCKING 50 of 100
Run: 50 Seed: 1123685364 1466076834 [ Run 50 of 100 GA/GALS ]
Beginning LAMARCKIAN GENETIC ALGORITHM (LGA), with a maximum of 25000000 energy evaluations.

Final-Value: -9.165


	FINAL GENETIC ALGORITHM DOCKED STATE
	_______________________________________________


Detailed state:  trans -16.957 4.970 8.403 quatxyzw 0.261346 0.473570 -0.794923 -0.274823 center 8.287 34.468 -0.670 ntor 10 -74.8440 -99.0940 57.3987 -104.5333 -151.4252 29.8828 80.5080 -115.6554 54.1615 119.7000
State:	-16.957   4.970   8.403   0.272  0.493 -0.827 -148.097    -74.84  -99.09   57.40 -104.53 -151.43   29.88   80.51 -115.66   54.16  119.70

DOCKED: MODEL       50
DOCKED: USER    Run = 50
DOCKED: USER    DPF = D:/Protein_go_brrr/autodock/final/mut_Y35F/heme_O2/dock.dpf
DOCKED: USER  
DOCKED: USER    Estimated Free Energy of Binding    =   -5.66 kcal/mol  [=(1)+(2)+(3)-(4)]
DOCKED: USER    Estimated Inhibition Constant, Ki   =   71.48 uM (micromolar)  [Temperature = 298.15 K]
DOCKED: USER    
DOCKED: USER    (1) Final Intermolecular Energy     =   -8.64 kcal/mol
DOCKED: USER        vdW + Hbond + desolv Energy     =   -5.34 kcal/mol
DOCKED: USER        Electrostatic Energy            =   -3.30 kcal/mol
DOCKED: USER    (2) Final Total Internal Energy     =   -0.53 kcal/mol
DOCKED: USER    (3) Torsional Free Energy           =   +2.98 kcal/mol
DOCKED: USER    (4) Unbound System's Energy  [=(2)] =   -0.53 kcal/mol
DOCKED: USER    
DOCKED: USER    
DOCKED: USER    NEWDPF move heme_O2_opt.pdbqt
DOCKED: USER    NEWDPF about 8.287000 34.468000 -0.670000
DOCKED: USER    NEWDPF tran0 -16.956545 4.969513 8.402799
DOCKED: USER    NEWDPF quaternion0 0.261346 0.473570 -0.794923 -0.274823
DOCKED: USER    NEWDPF axisangle0 0.271812 0.492535 -0.826757 -148.097063
DOCKED: USER    NEWDPF quat0 0.271812 0.492535 -0.826757 -148.097063
DOCKED: USER    NEWDPF dihe0 -74.84 -99.09 57.40 -104.53 -151.43 29.88 80.51 -115.66 54.16 119.70 
DOCKED: USER  keepresnum = 1 
DOCKED: USER  
DOCKED: REMARK  10 active torsions:
DOCKED: REMARK  status: ('A' for Active; 'I' for Inactive)
DOCKED: REMARK    1  A    between atoms: C_6  and  C_10 
DOCKED: REMARK    2  A    between atoms: C_10  and  C_11 
DOCKED: REMARK    3  A    between atoms: C_11  and  C_12 
DOCKED: REMARK    4  A    between atoms: C_12  and  O_14 
DOCKED: REMARK    5  A    between atoms: C_17  and  C_20 
DOCKED: REMARK    6  A    between atoms: C_24  and  C_27 
DOCKED: REMARK    7  A    between atoms: C_31  and  C_34 
DOCKED: REMARK    8  A    between atoms: C_34  and  C_35 
DOCKED: REMARK    9  A    between atoms: C_35  and  C_36 
DOCKED: REMARK   10  A    between atoms: C_36  and  O_38 
DOCKED: USER                              x       y       z     vdW  Elec       q    Type
DOCKED: USER                           _______ _______ _______ _____ _____    ______ ____
DOCKED: ROOT
DOCKED: ATOM      1  C   UNL d   1     -15.088   5.800   8.968 -0.13 +0.09    +0.064 A 
DOCKED: ATOM      2  C   UNL d   1     -18.367   3.346  11.373 -0.12 +0.02    +0.064 A 
DOCKED: ATOM      3  C   UNL d   1     -21.167   3.089   7.476 -0.09 +0.01    +0.064 C 
DOCKED: ATOM      4  C   UNL d   1     -17.588   5.198   4.866 -0.01 +0.01    +0.064 A 
DOCKED: ATOM      5  C   UNL d   1     -15.751   5.152   9.940 -0.14 +0.08    +0.066 A 
DOCKED: ATOM      6  C   UNL d   1     -15.284   5.018  11.251 -0.18 -0.02    -0.021 A 
DOCKED: ATOM      7  C   UNL d   1     -16.212   4.271  11.937 -0.15 -0.02    -0.025 A 
DOCKED: ATOM      8  C   UNL d   1     -17.244   4.009  11.039 -0.14 +0.04    +0.066 A 
DOCKED: ATOM      9  C   UNL d   1     -16.070   3.822  13.375 +0.04 +0.02    +0.051 C 
DOCKED: ATOM     10  C   UNL d   1     -19.492   3.061  10.482 -0.14 +0.01    +0.066 A 
DOCKED: ATOM     11  C   UNL d   1     -20.703   2.514  10.921 -0.11 -0.00    -0.021 A 
DOCKED: ATOM     12  C   UNL d   1     -21.530   2.448   9.815 -0.09 +0.00    +0.000 A 
DOCKED: ATOM     13  C   UNL d   1     -20.755   2.960   8.737 -0.10 +0.01    +0.070 A 
DOCKED: ATOM     14  C   UNL d   1     -21.065   2.096  12.342 -0.07 +0.00    +0.052 C 
DOCKED: ATOM     15  C   UNL d   1     -20.403   3.569   6.349 -0.07 +0.01    +0.066 A 
DOCKED: ATOM     16  C   UNL d   1     -20.836   3.526   5.024 -0.04 -0.00    -0.021 A 
DOCKED: ATOM     17  C   UNL d   1     -19.831   4.121   4.262 -0.03 +0.00    +0.000 A 
DOCKED: ATOM     18  C   UNL d   1     -18.848   4.489   5.191 -0.03 +0.01    +0.070 A 
DOCKED: ATOM     19  C   UNL d   1     -22.131   2.878   4.603 -0.02 +0.00    +0.052 C 
DOCKED: ATOM     20  C   UNL d   1     -16.605   5.527   5.726 -0.03 +0.02    +0.066 A 
DOCKED: ATOM     21  C   UNL d   1     -15.448   6.211   5.364 -0.04 -0.01    -0.025 A 
DOCKED: ATOM     22  C   UNL d   1     -14.736   6.415   6.525 -0.08 -0.01    -0.021 A 
DOCKED: ATOM     23  C   UNL d   1     -15.480   5.830   7.554 -0.09 +0.06    +0.066 A 
DOCKED: ATOM     24  C   UNL d   1     -15.040   6.644   3.979 -0.06 +0.01    +0.051 C 
DOCKED: ATOM     25  N   UNL d   1     -16.928   4.496   9.791 -0.11 -0.18    -0.248 N 
DOCKED: ATOM     26  N   UNL d   1     -19.516   3.326   9.150 -0.07 -0.08    -0.248 N 
DOCKED: ATOM     27  N   UNL d   1     -19.178   4.079   6.443 -0.05 -0.05    -0.248 N 
DOCKED: ATOM     28  N   UNL d   1     -16.593   5.252   7.057 -0.04 -0.14    -0.248 N 
DOCKED: ATOM     29 FE   UNL d   1     -18.045   4.296   8.094 -0.03 +0.00    +0.000 Fe
DOCKED: ATOM     30  O   UNL d   1     -17.416   2.962   8.593 -0.68 +0.00    +0.000 OA
DOCKED: ATOM     31  O   UNL d   1     -17.460   3.275   7.050 -0.38 +0.00    +0.000 OA
DOCKED: ENDROOT
DOCKED: BRANCH   6  32
DOCKED: ATOM     32  C   UNL d   1     -13.954   5.457  11.806 -0.21 +0.07    +0.052 C 
DOCKED: BRANCH  32  33
DOCKED: ATOM     33  C   UNL d   1     -14.070   6.101  13.184 -0.13 +0.11    +0.115 C 
DOCKED: BRANCH  33  34
DOCKED: ATOM     34  C   UNL d   1     -13.992   7.607  13.123 +0.24 +0.21    +0.139 C 
DOCKED: ATOM     35  O   UNL d   1     -14.792   8.225  12.439 -0.45 -1.05    -0.650 OA
DOCKED: BRANCH  34  36
DOCKED: ATOM     36  O   UNL d   1     -13.037   8.289  13.787 -0.30 -1.04    -0.776 OA
DOCKED: ATOM     37  H   UNL d   1     -13.067   8.410  14.743 +0.02 +0.12    +0.167 HD
DOCKED: ENDBRANCH  34  36
DOCKED: ENDBRANCH  33  34
DOCKED: ENDBRANCH  32  33
DOCKED: ENDBRANCH   6  32
DOCKED: BRANCH  22  38
DOCKED: ATOM     38  C   UNL d   1     -13.387   7.079   6.622 -0.16 +0.04    +0.052 C 
DOCKED: BRANCH  38  39
DOCKED: ATOM     39  C   UNL d   1     -12.454   6.360   7.593 -0.22 +0.15    +0.115 C 
DOCKED: BRANCH  39  40
DOCKED: ATOM     40  C   UNL d   1     -12.134   4.954   7.150 -0.23 +0.22    +0.139 C 
DOCKED: ATOM     41  O   UNL d   1     -11.319   4.292   7.774 -0.30 -1.30    -0.650 OA
DOCKED: BRANCH  40  42
DOCKED: ATOM     42  O   UNL d   1     -12.770   4.392   6.104 -0.10 -0.95    -0.776 OA
DOCKED: ATOM     43  H   UNL d   1     -13.534   3.816   6.228 -0.08 +0.22    +0.167 HD
DOCKED: ENDBRANCH  40  42
DOCKED: ENDBRANCH  39  40
DOCKED: ENDBRANCH  38  39
DOCKED: ENDBRANCH  22  38
DOCKED: BRANCH  12  44
DOCKED: ATOM     44  C   UNL d   1     -22.944   1.912   9.899 -0.04 +0.00    +0.004 C 
DOCKED: ATOM     45  C   UNL d   1     -23.501   0.954   9.159 -0.04 +0.00    +0.012 C 
DOCKED: ENDBRANCH  12  44
DOCKED: BRANCH  17  46
DOCKED: ATOM     46  C   UNL d   1     -19.702   4.311   2.774 -0.01 +0.00    +0.004 C 
DOCKED: ATOM     47  C   UNL d   1     -18.837   3.725   1.936 -0.01 +0.00    +0.012 C 
DOCKED: ENDBRANCH  17  46
DOCKED: TORSDOF 10
DOCKED: TER
DOCKED: ENDMDL
________________________________________________________________________________


	BEGINNING GENETIC ALGORITHM DOCKING 51 of 100
Run: 51 Seed: 2088038418 1244449863 [ Run 51 of 100 GA/GALS ]
Beginning LAMARCKIAN GENETIC ALGORITHM (LGA), with a maximum of 25000000 energy evaluations.

Final-Value: -9.684


	FINAL GENETIC ALGORITHM DOCKED STATE
	_______________________________________________


Detailed state:  trans -5.143 -16.225 -16.242 quatxyzw 0.541207 0.577440 -0.055604 0.608742 center 8.287 34.468 -0.670 ntor 10 -162.2118 -56.3634 48.1511 130.8488 142.7212 127.4187 80.2560 -120.3432 2.1179 -26.8912
State:	 -5.143 -16.225 -16.242   0.682  0.728 -0.070 105.003   -162.21  -56.36   48.15  130.85  142.72  127.42   80.26 -120.34    2.12  -26.89

DOCKED: MODEL       51
DOCKED: USER    Run = 51
DOCKED: USER    DPF = D:/Protein_go_brrr/autodock/final/mut_Y35F/heme_O2/dock.dpf
DOCKED: USER  
DOCKED: USER    Estimated Free Energy of Binding    =   -4.46 kcal/mol  [=(1)+(2)+(3)-(4)]
DOCKED: USER    Estimated Inhibition Constant, Ki   =  540.21 uM (micromolar)  [Temperature = 298.15 K]
DOCKED: USER    
DOCKED: USER    (1) Final Intermolecular Energy     =   -7.44 kcal/mol
DOCKED: USER        vdW + Hbond + desolv Energy     =   -5.09 kcal/mol
DOCKED: USER        Electrostatic Energy            =   -2.35 kcal/mol
DOCKED: USER    (2) Final Total Internal Energy     =   -2.24 kcal/mol
DOCKED: USER    (3) Torsional Free Energy           =   +2.98 kcal/mol
DOCKED: USER    (4) Unbound System's Energy  [=(2)] =   -2.24 kcal/mol
DOCKED: USER    
DOCKED: USER    
DOCKED: USER    NEWDPF move heme_O2_opt.pdbqt
DOCKED: USER    NEWDPF about 8.287000 34.468000 -0.670000
DOCKED: USER    NEWDPF tran0 -5.143032 -16.224728 -16.242256
DOCKED: USER    NEWDPF quaternion0 0.541207 0.577440 -0.055604 0.608742
DOCKED: USER    NEWDPF axisangle0 0.682163 0.727833 -0.070085 105.002782
DOCKED: USER    NEWDPF quat0 0.682163 0.727833 -0.070085 105.002782
DOCKED: USER    NEWDPF dihe0 -162.21 -56.36 48.15 130.85 142.72 127.42 80.26 -120.34 2.12 -26.89 
DOCKED: USER  keepresnum = 1 
DOCKED: USER  
DOCKED: REMARK  10 active torsions:
DOCKED: REMARK  status: ('A' for Active; 'I' for Inactive)
DOCKED: REMARK    1  A    between atoms: C_6  and  C_10 
DOCKED: REMARK    2  A    between atoms: C_10  and  C_11 
DOCKED: REMARK    3  A    between atoms: C_11  and  C_12 
DOCKED: REMARK    4  A    between atoms: C_12  and  O_14 
DOCKED: REMARK    5  A    between atoms: C_17  and  C_20 
DOCKED: REMARK    6  A    between atoms: C_24  and  C_27 
DOCKED: REMARK    7  A    between atoms: C_31  and  C_34 
DOCKED: REMARK    8  A    between atoms: C_34  and  C_35 
DOCKED: REMARK    9  A    between atoms: C_35  and  C_36 
DOCKED: REMARK   10  A    between atoms: C_36  and  O_38 
DOCKED: USER                              x       y       z     vdW  Elec       q    Type
DOCKED: USER                           _______ _______ _______ _____ _____    ______ ____
DOCKED: ROOT
DOCKED: ATOM      1  C   UNL d   1      -4.808 -17.750 -17.678 -0.01 +0.04    +0.064 A 
DOCKED: ATOM      2  C   UNL d   1      -8.773 -15.844 -15.887 -0.04 +0.01    +0.064 A 
DOCKED: ATOM      3  C   UNL d   1      -6.205 -12.942 -13.046 -0.26 -0.01    +0.064 C 
DOCKED: ATOM      4  C   UNL d   1      -2.118 -14.558 -15.226 -0.09 +0.01    +0.064 A 
DOCKED: ATOM      5  C   UNL d   1      -6.096 -17.467 -17.424 -0.08 +0.03    +0.066 A 
DOCKED: ATOM      6  C   UNL d   1      -7.175 -18.116 -18.032 -0.06 -0.01    -0.021 A 
DOCKED: ATOM      7  C   UNL d   1      -8.323 -17.535 -17.546 -0.04 -0.01    -0.025 A 
DOCKED: ATOM      8  C   UNL d   1      -7.915 -16.581 -16.619 -0.06 +0.02    +0.066 A 
DOCKED: ATOM      9  C   UNL d   1      -9.725 -17.883 -17.995 -0.01 +0.01    +0.051 C 
DOCKED: ATOM     10  C   UNL d   1      -8.405 -14.845 -14.883 -0.07 +0.01    +0.066 A 
DOCKED: ATOM     11  C   UNL d   1      -9.333 -14.227 -14.036 -0.10 -0.00    -0.021 A 
DOCKED: ATOM     12  C   UNL d   1      -8.609 -13.400 -13.197 -0.20 +0.00    +0.000 A 
DOCKED: ATOM     13  C   UNL d   1      -7.253 -13.554 -13.597 -0.16 -0.00    +0.070 A 
DOCKED: ATOM     14  C   UNL d   1     -10.842 -14.438 -14.011 -0.11 +0.00    +0.052 C 
DOCKED: ATOM     15  C   UNL d   1      -4.821 -13.044 -13.443 -0.20 -0.00    +0.066 A 
DOCKED: ATOM     16  C   UNL d   1      -3.792 -12.253 -12.934 -0.26 +0.00    -0.021 A 
DOCKED: ATOM     17  C   UNL d   1      -2.617 -12.695 -13.542 -0.21 -0.00    +0.000 A 
DOCKED: ATOM     18  C   UNL d   1      -3.023 -13.738 -14.386 -0.14 +0.01    +0.070 A 
DOCKED: ATOM     19  C   UNL d   1      -4.027 -11.121 -11.965 -0.34 -0.01    +0.052 C 
DOCKED: ATOM     20  C   UNL d   1      -2.479 -15.536 -16.079 -0.07 +0.01    +0.066 A 
DOCKED: ATOM     21  C   UNL d   1      -1.579 -16.286 -16.831 -0.04 -0.00    -0.025 A 
DOCKED: ATOM     22  C   UNL d   1      -2.326 -17.219 -17.515 -0.05 -0.01    -0.021 A 
DOCKED: ATOM     23  C   UNL d   1      -3.661 -16.991 -17.168 -0.07 +0.03    +0.066 A 
DOCKED: ATOM     24  C   UNL d   1      -0.083 -16.119 -16.896 -0.02 +0.00    +0.051 C 
DOCKED: ATOM     25  N   UNL d   1      -6.542 -16.494 -16.592 -0.07 -0.08    -0.248 N 
DOCKED: ATOM     26  N   UNL d   1      -7.138 -14.431 -14.626 -0.06 -0.02    -0.248 N 
DOCKED: ATOM     27  N   UNL d   1      -4.372 -13.885 -14.370 -0.12 -0.02    -0.248 N 
DOCKED: ATOM     28  N   UNL d   1      -3.753 -15.938 -16.330 -0.06 -0.07    -0.248 N 
DOCKED: ATOM     29 FE   UNL d   1      -5.432 -15.188 -15.483 -0.02 +0.00    +0.000 Fe
DOCKED: ATOM     30  O   UNL d   1      -6.234 -14.512 -16.633 -0.05 +0.00    +0.000 OA
DOCKED: ATOM     31  O   UNL d   1      -4.767 -14.032 -16.317 -0.05 +0.00    +0.000 OA
DOCKED: ENDROOT
DOCKED: BRANCH   6  32
DOCKED: ATOM     32  C   UNL d   1      -7.132 -19.148 -19.130 -0.04 +0.02    +0.052 C 
DOCKED: BRANCH  32  33
DOCKED: ATOM     33  C   UNL d   1      -6.950 -20.567 -18.602 -0.05 +0.09    +0.115 C 
DOCKED: BRANCH  33  34
DOCKED: ATOM     34  C   UNL d   1      -5.533 -21.061 -18.754 +0.01 +0.15    +0.139 C 
DOCKED: ATOM     35  O   UNL d   1      -4.728 -20.398 -19.390 -0.11 -0.44    -0.650 OA
DOCKED: BRANCH  34  36
DOCKED: ATOM     36  O   UNL d   1      -5.137 -22.238 -18.226 -0.26 -1.16    -0.776 OA
DOCKED: ATOM     37  H   UNL d   1      -4.206 -22.449 -18.089 -0.00 +0.23    +0.167 HD
DOCKED: ENDBRANCH  34  36
DOCKED: ENDBRANCH  33  34
DOCKED: ENDBRANCH  32  33
DOCKED: ENDBRANCH   6  32
DOCKED: BRANCH  22  38
DOCKED: ATOM     38  C   UNL d   1      -1.786 -18.228 -18.496 -0.03 +0.01    +0.052 C 
DOCKED: BRANCH  38  39
DOCKED: ATOM     39  C   UNL d   1      -1.063 -19.382 -17.805 -0.03 +0.04    +0.115 C 
DOCKED: BRANCH  39  40
DOCKED: ATOM     40  C   UNL d   1      -1.952 -20.122 -16.836 -0.06 +0.11    +0.139 C 
DOCKED: ATOM     41  O   UNL d   1      -2.035 -19.742 -15.679 -0.01 -0.56    -0.650 OA
DOCKED: BRANCH  40  42
DOCKED: ATOM     42  O   UNL d   1      -2.700 -21.168 -17.237 -0.08 -1.00    -0.776 OA
DOCKED: ATOM     43  H   UNL d   1      -3.306 -21.098 -17.984 -0.00 +0.22    +0.167 HD
DOCKED: ENDBRANCH  40  42
DOCKED: ENDBRANCH  39  40
DOCKED: ENDBRANCH  38  39
DOCKED: ENDBRANCH  22  38
DOCKED: BRANCH  12  44
DOCKED: ATOM     44  C   UNL d   1      -9.274 -12.562 -12.125 -0.30 -0.00    +0.004 C 
DOCKED: ATOM     45  C   UNL d   1      -9.032 -11.290 -11.813 -0.32 -0.00    +0.012 C 
DOCKED: ENDBRANCH  12  44
DOCKED: BRANCH  17  46
DOCKED: ATOM     46  C   UNL d   1      -1.202 -12.193 -13.438 -0.33 -0.00    +0.004 C 
DOCKED: ATOM     47  C   UNL d   1      -0.103 -12.876 -13.091 -0.33 -0.00    +0.012 C 
DOCKED: ENDBRANCH  17  46
DOCKED: TORSDOF 10
DOCKED: TER
DOCKED: ENDMDL
________________________________________________________________________________


	BEGINNING GENETIC ALGORITHM DOCKING 52 of 100
Run: 52 Seed: 1448468181 934820805 [ Run 52 of 100 GA/GALS ]
Beginning LAMARCKIAN GENETIC ALGORITHM (LGA), with a maximum of 25000000 energy evaluations.

Final-Value: -9.014


	FINAL GENETIC ALGORITHM DOCKED STATE
	_______________________________________________


Detailed state:  trans 8.840 16.328 -9.645 quatxyzw 0.503359 -0.216587 0.569986 -0.612238 center 8.287 34.468 -0.670 ntor 10 -132.6228 -2.4082 -73.6116 -86.7972 57.4615 -28.5277 -69.8461 -15.3827 -160.4481 21.2991
State:	  8.840  16.328  -9.645   0.637 -0.274  0.721 -104.497   -132.62   -2.41  -73.61  -86.80   57.46  -28.53  -69.85  -15.38 -160.45   21.30

DOCKED: MODEL       52
DOCKED: USER    Run = 52
DOCKED: USER    DPF = D:/Protein_go_brrr/autodock/final/mut_Y35F/heme_O2/dock.dpf
DOCKED: USER  
DOCKED: USER    Estimated Free Energy of Binding    =   -3.77 kcal/mol  [=(1)+(2)+(3)-(4)]
DOCKED: USER    Estimated Inhibition Constant, Ki   =    1.73 mM (millimolar)  [Temperature = 298.15 K]
DOCKED: USER    
DOCKED: USER    (1) Final Intermolecular Energy     =   -6.75 kcal/mol
DOCKED: USER        vdW + Hbond + desolv Energy     =   -6.63 kcal/mol
DOCKED: USER        Electrostatic Energy            =   -0.12 kcal/mol
DOCKED: USER    (2) Final Total Internal Energy     =   -2.26 kcal/mol
DOCKED: USER    (3) Torsional Free Energy           =   +2.98 kcal/mol
DOCKED: USER    (4) Unbound System's Energy  [=(2)] =   -2.26 kcal/mol
DOCKED: USER    
DOCKED: USER    
DOCKED: USER    NEWDPF move heme_O2_opt.pdbqt
DOCKED: USER    NEWDPF about 8.287000 34.468000 -0.670000
DOCKED: USER    NEWDPF tran0 8.839998 16.328152 -9.644779
DOCKED: USER    NEWDPF quaternion0 0.503359 -0.216587 0.569986 -0.612238
DOCKED: USER    NEWDPF axisangle0 0.636621 -0.273927 0.720887 -104.496938
DOCKED: USER    NEWDPF quat0 0.636621 -0.273927 0.720887 -104.496938
DOCKED: USER    NEWDPF dihe0 -132.62 -2.41 -73.61 -86.80 57.46 -28.53 -69.85 -15.38 -160.45 21.30 
DOCKED: USER  keepresnum = 1 
DOCKED: USER  
DOCKED: REMARK  10 active torsions:
DOCKED: REMARK  status: ('A' for Active; 'I' for Inactive)
DOCKED: REMARK    1  A    between atoms: C_6  and  C_10 
DOCKED: REMARK    2  A    between atoms: C_10  and  C_11 
DOCKED: REMARK    3  A    between atoms: C_11  and  C_12 
DOCKED: REMARK    4  A    between atoms: C_12  and  O_14 
DOCKED: REMARK    5  A    between atoms: C_17  and  C_20 
DOCKED: REMARK    6  A    between atoms: C_24  and  C_27 
DOCKED: REMARK    7  A    between atoms: C_31  and  C_34 
DOCKED: REMARK    8  A    between atoms: C_34  and  C_35 
DOCKED: REMARK    9  A    between atoms: C_35  and  C_36 
DOCKED: REMARK   10  A    between atoms: C_36  and  O_38 
DOCKED: USER                              x       y       z     vdW  Elec       q    Type
DOCKED: USER                           _______ _______ _______ _____ _____    ______ ____
DOCKED: ROOT
DOCKED: ATOM      1  C   UNL d   1       7.562  16.027 -11.311 -0.14 +0.00    +0.064 A 
DOCKED: ATOM      2  C   UNL d   1      11.505  13.818  -9.852 -0.23 -0.01    +0.064 A 
DOCKED: ATOM      3  C   UNL d   1      11.897  16.796  -6.101 -0.19 -0.03    +0.064 C 
DOCKED: ATOM      4  C   UNL d   1       7.577  18.774  -7.324 -0.11 +0.02    +0.064 A 
DOCKED: ATOM      5  C   UNL d   1       8.602  15.182 -11.219 -0.19 +0.00    +0.066 A 
DOCKED: ATOM      6  C   UNL d   1       8.868  14.166 -12.141 -0.23 +0.00    -0.021 A 
DOCKED: ATOM      7  C   UNL d   1       9.985  13.498 -11.697 -0.23 +0.00    -0.025 A 
DOCKED: ATOM      8  C   UNL d   1      10.398  14.155 -10.541 -0.22 -0.01    +0.066 A 
DOCKED: ATOM      9  C   UNL d   1      10.582  12.274 -12.357 -0.09 -0.00    +0.051 C 
DOCKED: ATOM     10  C   UNL d   1      12.001  14.483  -8.646 -0.20 -0.01    +0.066 A 
DOCKED: ATOM     11  C   UNL d   1      13.242  14.198  -8.065 -0.20 +0.00    -0.021 A 
DOCKED: ATOM     12  C   UNL d   1      13.381  15.060  -6.992 -0.23 -0.00    +0.000 A 
DOCKED: ATOM     13  C   UNL d   1      12.185  15.830  -6.972 -0.19 -0.02    +0.070 A 
DOCKED: ATOM     14  C   UNL d   1      14.263  13.167  -8.530 -0.20 -0.01    +0.052 C 
DOCKED: ATOM     15  C   UNL d   1      10.684  17.575  -6.025 -0.02 -0.01    +0.066 A 
DOCKED: ATOM     16  C   UNL d   1      10.374  18.457  -4.990 -0.14 +0.00    -0.021 A 
DOCKED: ATOM     17  C   UNL d   1       9.146  19.032  -5.317 -0.14 +0.00    +0.000 A 
DOCKED: ATOM     18  C   UNL d   1       8.796  18.451  -6.544 -0.12 +0.01    +0.070 A 
DOCKED: ATOM     19  C   UNL d   1      11.242  18.629  -3.769 -0.17 -0.04    +0.052 C 
DOCKED: ATOM     20  C   UNL d   1       7.189  18.205  -8.482 -0.12 +0.02    +0.066 A 
DOCKED: ATOM     21  C   UNL d   1       6.039  18.563  -9.180 -0.08 -0.00    -0.025 A 
DOCKED: ATOM     22  C   UNL d   1       6.033  17.810 -10.333 -0.08 -0.00    -0.021 A 
DOCKED: ATOM     23  C   UNL d   1       7.174  17.003 -10.286 -0.11 +0.01    +0.066 A 
DOCKED: ATOM     24  C   UNL d   1       4.998  19.570  -8.767 -0.06 +0.01    +0.051 C 
DOCKED: ATOM     25  N   UNL d   1       9.508  15.151 -10.211 -0.13 +0.00    -0.248 N 
DOCKED: ATOM     26  N   UNL d   1      11.350  15.470  -7.979 -0.12 +0.03    -0.248 N 
DOCKED: ATOM     27  N   UNL d   1       9.703  17.515  -6.921 -0.09 -0.01    -0.248 N 
DOCKED: ATOM     28  N   UNL d   1       7.850  17.214  -9.138 -0.09 -0.04    -0.248 N 
DOCKED: ATOM     29 FE   UNL d   1       9.587  16.350  -8.560 -0.04 +0.00    +0.000 Fe
DOCKED: ATOM     30  O   UNL d   1       9.249  14.864  -8.242 -0.52 +0.00    +0.000 OA
DOCKED: ATOM     31  O   UNL d   1       8.508  16.018  -7.466 -0.44 +0.00    +0.000 OA
DOCKED: ENDROOT
DOCKED: BRANCH   6  32
DOCKED: ATOM     32  C   UNL d   1       8.030  13.748 -13.322 -0.23 +0.00    +0.052 C 
DOCKED: BRANCH  32  33
DOCKED: ATOM     33  C   UNL d   1       6.811  12.924 -12.920 -0.29 +0.01    +0.115 C 
DOCKED: BRANCH  33  34
DOCKED: ATOM     34  C   UNL d   1       5.522  13.694 -13.069 -0.28 +0.01    +0.139 C 
DOCKED: ATOM     35  O   UNL d   1       5.067  14.299 -12.111 -0.07 -0.08    -0.650 OA
DOCKED: BRANCH  34  36
DOCKED: ATOM     36  O   UNL d   1       4.842  13.709 -14.233 +0.04 -0.01    -0.776 OA
DOCKED: ATOM     37  H   UNL d   1       4.514  14.527 -14.624 +0.04 -0.00    +0.167 HD
DOCKED: ENDBRANCH  34  36
DOCKED: ENDBRANCH  33  34
DOCKED: ENDBRANCH  32  33
DOCKED: ENDBRANCH   6  32
DOCKED: BRANCH  22  38
DOCKED: ATOM     38  C   UNL d   1       4.954  17.822 -11.384 -0.07 +0.00    +0.052 C 
DOCKED: BRANCH  38  39
DOCKED: ATOM     39  C   UNL d   1       5.496  18.164 -12.771 -0.02 +0.00    +0.115 C 
DOCKED: BRANCH  39  40
DOCKED: ATOM     40  C   UNL d   1       4.534  17.796 -13.872 -0.01 -0.00    +0.139 C 
DOCKED: ATOM     41  O   UNL d   1       4.053  18.672 -14.574 +0.00 +0.01    -0.650 OA
DOCKED: BRANCH  40  42
DOCKED: ATOM     42  O   UNL d   1       4.233  16.509 -14.132 +0.04 +0.00    -0.776 OA
DOCKED: ATOM     43  H   UNL d   1       4.617  15.788 -13.621 +0.03 +0.00    +0.167 HD
DOCKED: ENDBRANCH  40  42
DOCKED: ENDBRANCH  39  40
DOCKED: ENDBRANCH  38  39
DOCKED: ENDBRANCH  22  38
DOCKED: BRANCH  12  44
DOCKED: ATOM     44  C   UNL d   1      14.614  15.056  -6.113 -0.24 -0.00    +0.004 C 
DOCKED: ATOM     45  C   UNL d   1      15.636  15.910  -6.133 -0.16 -0.01    +0.012 C 
DOCKED: ENDBRANCH  12  44
DOCKED: BRANCH  17  46
DOCKED: ATOM     46  C   UNL d   1       8.280  20.007  -4.565 -0.13 +0.00    +0.004 C 
DOCKED: ATOM     47  C   UNL d   1       7.263  19.741  -3.734 -0.16 +0.00    +0.012 C 
DOCKED: ENDBRANCH  17  46
DOCKED: TORSDOF 10
DOCKED: TER
DOCKED: ENDMDL
________________________________________________________________________________


	BEGINNING GENETIC ALGORITHM DOCKING 53 of 100
Run: 53 Seed: 1186100908 1265113663 [ Run 53 of 100 GA/GALS ]
Beginning LAMARCKIAN GENETIC ALGORITHM (LGA), with a maximum of 25000000 energy evaluations.

Final-Value: -10.287


	FINAL GENETIC ALGORITHM DOCKED STATE
	_______________________________________________


Detailed state:  trans 16.362 6.241 5.301 quatxyzw -0.870473 0.031358 -0.036053 -0.489891 center 8.287 34.468 -0.670 ntor 10 -67.3655 -16.7844 52.3471 -114.8114 39.8231 -168.6283 85.3498 130.6392 30.9265 34.2537
State:	 16.362   6.241   5.301  -0.998  0.036 -0.041 -121.333    -67.37  -16.78   52.35 -114.81   39.82 -168.63   85.35  130.64   30.93   34.25

DOCKED: MODEL       53
DOCKED: USER    Run = 53
DOCKED: USER    DPF = D:/Protein_go_brrr/autodock/final/mut_Y35F/heme_O2/dock.dpf
DOCKED: USER  
DOCKED: USER    Estimated Free Energy of Binding    =   -5.67 kcal/mol  [=(1)+(2)+(3)-(4)]
DOCKED: USER    Estimated Inhibition Constant, Ki   =   70.34 uM (micromolar)  [Temperature = 298.15 K]
DOCKED: USER    
DOCKED: USER    (1) Final Intermolecular Energy     =   -8.65 kcal/mol
DOCKED: USER        vdW + Hbond + desolv Energy     =   -6.42 kcal/mol
DOCKED: USER        Electrostatic Energy            =   -2.23 kcal/mol
DOCKED: USER    (2) Final Total Internal Energy     =   -1.64 kcal/mol
DOCKED: USER    (3) Torsional Free Energy           =   +2.98 kcal/mol
DOCKED: USER    (4) Unbound System's Energy  [=(2)] =   -1.64 kcal/mol
DOCKED: USER    
DOCKED: USER    
DOCKED: USER    NEWDPF move heme_O2_opt.pdbqt
DOCKED: USER    NEWDPF about 8.287000 34.468000 -0.670000
DOCKED: USER    NEWDPF tran0 16.362347 6.240602 5.301058
DOCKED: USER    NEWDPF quaternion0 -0.870473 0.031358 -0.036053 -0.489891
DOCKED: USER    NEWDPF axisangle0 -0.998497 0.035970 -0.041355 -121.333211
DOCKED: USER    NEWDPF quat0 -0.998497 0.035970 -0.041355 -121.333211
DOCKED: USER    NEWDPF dihe0 -67.37 -16.78 52.35 -114.81 39.82 -168.63 85.35 130.64 30.93 34.25 
DOCKED: USER  keepresnum = 1 
DOCKED: USER  
DOCKED: REMARK  10 active torsions:
DOCKED: REMARK  status: ('A' for Active; 'I' for Inactive)
DOCKED: REMARK    1  A    between atoms: C_6  and  C_10 
DOCKED: REMARK    2  A    between atoms: C_10  and  C_11 
DOCKED: REMARK    3  A    between atoms: C_11  and  C_12 
DOCKED: REMARK    4  A    between atoms: C_12  and  O_14 
DOCKED: REMARK    5  A    between atoms: C_17  and  C_20 
DOCKED: REMARK    6  A    between atoms: C_24  and  C_27 
DOCKED: REMARK    7  A    between atoms: C_31  and  C_34 
DOCKED: REMARK    8  A    between atoms: C_34  and  C_35 
DOCKED: REMARK    9  A    between atoms: C_35  and  C_36 
DOCKED: REMARK   10  A    between atoms: C_36  and  O_38 
DOCKED: USER                              x       y       z     vdW  Elec       q    Type
DOCKED: USER                           _______ _______ _______ _____ _____    ______ ____
DOCKED: ROOT
DOCKED: ATOM      1  C   UNL d   1      14.414   5.416   5.140 -0.22 +0.02    +0.064 A 
DOCKED: ATOM      2  C   UNL d   1      15.983   9.877   5.592 +0.04 +0.02    +0.064 A 
DOCKED: ATOM      3  C   UNL d   1      20.539   8.356   5.755 -0.06 +0.03    +0.064 C 
DOCKED: ATOM      4  C   UNL d   1      18.968   3.805   4.810 -0.14 +0.03    +0.064 A 
DOCKED: ATOM      5  C   UNL d   1      14.470   6.754   5.248 -0.17 +0.02    +0.066 A 
DOCKED: ATOM      6  C   UNL d   1      13.345   7.584   5.268 -0.19 -0.00    -0.021 A 
DOCKED: ATOM      7  C   UNL d   1      13.800   8.879   5.355 -0.14 -0.00    -0.025 A 
DOCKED: ATOM      8  C   UNL d   1      15.188   8.801   5.435 -0.10 +0.02    +0.066 A 
DOCKED: ATOM      9  C   UNL d   1      12.920  10.110   5.330 -0.14 +0.01    +0.051 C 
DOCKED: ATOM     10  C   UNL d   1      17.442   9.855   5.704 -0.07 +0.02    +0.066 A 
DOCKED: ATOM     11  C   UNL d   1      18.206  10.982   6.030 -0.06 -0.00    -0.021 A 
DOCKED: ATOM     12  C   UNL d   1      19.521  10.560   6.099 -0.04 +0.00    +0.000 A 
DOCKED: ATOM     13  C   UNL d   1      19.485   9.171   5.793 -0.06 +0.02    +0.070 A 
DOCKED: ATOM     14  C   UNL d   1      17.699  12.395   6.291 -0.04 +0.01    +0.052 C 
DOCKED: ATOM     15  C   UNL d   1      20.550   6.953   5.415 -0.08 +0.04    +0.066 A 
DOCKED: ATOM     16  C   UNL d   1      21.705   6.193   5.232 -0.08 -0.01    -0.021 A 
DOCKED: ATOM     17  C   UNL d   1      21.281   4.892   4.961 -0.07 +0.00    +0.000 A 
DOCKED: ATOM     18  C   UNL d   1      19.882   4.957   5.001 -0.08 +0.04    +0.070 A 
DOCKED: ATOM     19  C   UNL d   1      23.093   6.782   5.277 -0.04 +0.02    +0.052 C 
DOCKED: ATOM     20  C   UNL d   1      17.621   3.840   4.800 -0.18 +0.02    +0.066 A 
DOCKED: ATOM     21  C   UNL d   1      16.813   2.719   4.633 -0.27 -0.01    -0.025 A 
DOCKED: ATOM     22  C   UNL d   1      15.513   3.155   4.751 -0.34 -0.01    -0.021 A 
DOCKED: ATOM     23  C   UNL d   1      15.575   4.535   4.969 -0.22 +0.02    +0.066 A 
DOCKED: ATOM     24  C   UNL d   1      17.259   1.304   4.370 -0.17 +0.01    +0.051 C 
DOCKED: ATOM     25  N   UNL d   1      15.603   7.496   5.303 -0.09 -0.07    -0.248 N 
DOCKED: ATOM     26  N   UNL d   1      18.218   8.752   5.549 -0.07 -0.09    -0.248 N 
DOCKED: ATOM     27  N   UNL d   1      19.455   6.229   5.203 -0.09 -0.15    -0.248 N 
DOCKED: ATOM     28  N   UNL d   1      16.857   4.954   4.953 -0.11 -0.09    -0.248 N 
DOCKED: ATOM     29 FE   UNL d   1      17.535   6.838   5.248 -0.03 +0.00    +0.000 Fe
DOCKED: ATOM     30  O   UNL d   1      17.114   7.654   3.992 -0.36 +0.00    +0.000 OA
DOCKED: ATOM     31  O   UNL d   1      18.024   6.379   3.826 -0.40 +0.00    +0.000 OA
DOCKED: ENDROOT
DOCKED: BRANCH   6  32
DOCKED: ATOM     32  C   UNL d   1      11.904   7.191   5.075 -0.23 +0.01    +0.052 C 
DOCKED: BRANCH  32  33
DOCKED: ATOM     33  C   UNL d   1      11.056   7.415   6.323 -0.14 +0.05    +0.115 C 
DOCKED: BRANCH  33  34
DOCKED: ATOM     34  C   UNL d   1      10.895   6.158   7.142 -0.12 +0.14    +0.139 C 
DOCKED: ATOM     35  O   UNL d   1       9.802   5.618   7.209 -0.46 -0.89    -0.650 OA
DOCKED: BRANCH  34  36
DOCKED: ATOM     36  O   UNL d   1      11.929   5.628   7.827 -0.24 -1.02    -0.776 OA
DOCKED: ATOM     37  H   UNL d   1      12.695   5.246   7.383 +0.04 +0.15    +0.167 HD
DOCKED: ENDBRANCH  34  36
DOCKED: ENDBRANCH  33  34
DOCKED: ENDBRANCH  32  33
DOCKED: ENDBRANCH   6  32
DOCKED: BRANCH  22  38
DOCKED: ATOM     38  C   UNL d   1      14.282   2.299   4.598 -0.42 +0.01    +0.052 C 
DOCKED: BRANCH  38  39
DOCKED: ATOM     39  C   UNL d   1      13.237   2.584   5.675 -0.33 +0.06    +0.115 C 
DOCKED: BRANCH  39  40
DOCKED: ATOM     40  C   UNL d   1      13.820   2.553   7.066 -0.21 +0.07    +0.139 C 
DOCKED: ATOM     41  O   UNL d   1      14.838   1.915   7.283 +0.04 -0.22    -0.650 OA
DOCKED: BRANCH  40  42
DOCKED: ATOM     42  O   UNL d   1      13.265   3.261   8.069 -0.08 -0.74    -0.776 OA
DOCKED: ATOM     43  H   UNL d   1      12.615   3.953   7.899 +0.03 +0.23    +0.167 HD
DOCKED: ENDBRANCH  40  42
DOCKED: ENDBRANCH  39  40
DOCKED: ENDBRANCH  38  39
DOCKED: ENDBRANCH  22  38
DOCKED: BRANCH  12  44
DOCKED: ATOM     44  C   UNL d   1      20.652  11.507   6.440 -0.01 +0.00    +0.004 C 
DOCKED: ATOM     45  C   UNL d   1      21.816  11.652   5.809 -0.01 +0.00    +0.012 C 
DOCKED: ENDBRANCH  12  44
DOCKED: BRANCH  17  46
DOCKED: ATOM     46  C   UNL d   1      22.061   3.650   4.621 -0.09 +0.00    +0.004 C 
DOCKED: ATOM     47  C   UNL d   1      21.963   2.883   3.527 -0.12 +0.01    +0.012 C 
DOCKED: ENDBRANCH  17  46
DOCKED: TORSDOF 10
DOCKED: TER
DOCKED: ENDMDL
________________________________________________________________________________


	BEGINNING GENETIC ALGORITHM DOCKING 54 of 100
Run: 54 Seed: 655421555 1758382496 [ Run 54 of 100 GA/GALS ]
Beginning LAMARCKIAN GENETIC ALGORITHM (LGA), with a maximum of 25000000 energy evaluations.

Final-Value: -8.941


	FINAL GENETIC ALGORITHM DOCKED STATE
	_______________________________________________


Detailed state:  trans -3.645 -13.171 -13.976 quatxyzw -0.202587 -0.884296 0.231490 -0.351272 center 8.287 34.468 -0.670 ntor 10 179.1984 109.3388 -78.7436 -108.9009 45.6651 -57.5720 -113.8437 138.9445 -168.9374 -163.2187
State:	 -3.645 -13.171 -13.976  -0.216 -0.944  0.247 -138.870    179.20  109.34  -78.74 -108.90   45.67  -57.57 -113.84  138.94 -168.94 -163.22

DOCKED: MODEL       54
DOCKED: USER    Run = 54
DOCKED: USER    DPF = D:/Protein_go_brrr/autodock/final/mut_Y35F/heme_O2/dock.dpf
DOCKED: USER  
DOCKED: USER    Estimated Free Energy of Binding    =   -3.69 kcal/mol  [=(1)+(2)+(3)-(4)]
DOCKED: USER    Estimated Inhibition Constant, Ki   =    1.97 mM (millimolar)  [Temperature = 298.15 K]
DOCKED: USER    
DOCKED: USER    (1) Final Intermolecular Energy     =   -6.67 kcal/mol
DOCKED: USER        vdW + Hbond + desolv Energy     =   -6.71 kcal/mol
DOCKED: USER        Electrostatic Energy            =   +0.03 kcal/mol
DOCKED: USER    (2) Final Total Internal Energy     =   -2.27 kcal/mol
DOCKED: USER    (3) Torsional Free Energy           =   +2.98 kcal/mol
DOCKED: USER    (4) Unbound System's Energy  [=(2)] =   -2.27 kcal/mol
DOCKED: USER    
DOCKED: USER    
DOCKED: USER    NEWDPF move heme_O2_opt.pdbqt
DOCKED: USER    NEWDPF about 8.287000 34.468000 -0.670000
DOCKED: USER    NEWDPF tran0 -3.645262 -13.171137 -13.976301
DOCKED: USER    NEWDPF quaternion0 -0.202587 -0.884296 0.231490 -0.351272
DOCKED: USER    NEWDPF axisangle0 -0.216376 -0.944484 0.247247 -138.869787
DOCKED: USER    NEWDPF quat0 -0.216376 -0.944484 0.247247 -138.869787
DOCKED: USER    NEWDPF dihe0 179.20 109.34 -78.74 -108.90 45.67 -57.57 -113.84 138.94 -168.94 -163.22 
DOCKED: USER  keepresnum = 1 
DOCKED: USER  
DOCKED: REMARK  10 active torsions:
DOCKED: REMARK  status: ('A' for Active; 'I' for Inactive)
DOCKED: REMARK    1  A    between atoms: C_6  and  C_10 
DOCKED: REMARK    2  A    between atoms: C_10  and  C_11 
DOCKED: REMARK    3  A    between atoms: C_11  and  C_12 
DOCKED: REMARK    4  A    between atoms: C_12  and  O_14 
DOCKED: REMARK    5  A    between atoms: C_17  and  C_20 
DOCKED: REMARK    6  A    between atoms: C_24  and  C_27 
DOCKED: REMARK    7  A    between atoms: C_31  and  C_34 
DOCKED: REMARK    8  A    between atoms: C_34  and  C_35 
DOCKED: REMARK    9  A    between atoms: C_35  and  C_36 
DOCKED: REMARK   10  A    between atoms: C_36  and  O_38 
DOCKED: USER                              x       y       z     vdW  Elec       q    Type
DOCKED: USER                           _______ _______ _______ _____ _____    ______ ____
DOCKED: ROOT
DOCKED: ATOM      1  C   UNL d   1      -1.700 -13.444 -14.778 -0.10 +0.00    +0.064 A 
DOCKED: ATOM      2  C   UNL d   1      -5.673 -16.032 -15.048 +0.03 +0.02    +0.064 A 
DOCKED: ATOM      3  C   UNL d   1      -8.022 -12.887 -12.276 -0.35 -0.01    +0.064 C 
DOCKED: ATOM      4  C   UNL d   1      -4.078  -9.971 -12.384 +0.03 -0.00    +0.064 A 
DOCKED: ATOM      5  C   UNL d   1      -2.590 -14.403 -15.079 -0.11 +0.01    +0.066 A 
DOCKED: ATOM      6  C   UNL d   1      -2.295 -15.528 -15.855 -0.08 -0.00    -0.021 A 
DOCKED: ATOM      7  C   UNL d   1      -3.456 -16.256 -15.970 -0.12 -0.01    -0.025 A 
DOCKED: ATOM      8  C   UNL d   1      -4.416 -15.581 -15.221 -0.16 +0.02    +0.066 A 
DOCKED: ATOM      9  C   UNL d   1      -3.609 -17.518 -16.792 -0.00 +0.03    +0.051 C 
DOCKED: ATOM     10  C   UNL d   1      -6.717 -15.381 -14.256 -0.18 +0.01    +0.066 A 
DOCKED: ATOM     11  C   UNL d   1      -7.953 -15.973 -13.975 -0.18 -0.00    -0.021 A 
DOCKED: ATOM     12  C   UNL d   1      -8.638 -15.089 -13.162 -0.22 +0.00    +0.000 A 
DOCKED: ATOM     13  C   UNL d   1      -7.766 -13.977 -12.999 -0.24 -0.00    +0.070 A 
DOCKED: ATOM     14  C   UNL d   1      -8.449 -17.337 -14.441 -0.16 +0.02    +0.052 C 
DOCKED: ATOM     15  C   UNL d   1      -7.181 -11.725 -12.114 -0.27 -0.01    +0.066 A 
DOCKED: ATOM     16  C   UNL d   1      -7.573 -10.547 -11.480 -0.30 +0.01    -0.021 A 
DOCKED: ATOM     17  C   UNL d   1      -6.465  -9.701 -11.499 -0.35 -0.00    +0.000 A 
DOCKED: ATOM     18  C   UNL d   1      -5.466 -10.436 -12.151 -0.26 -0.01    +0.070 A 
DOCKED: ATOM     19  C   UNL d   1      -8.972 -10.317 -10.966 -0.42 -0.01    +0.052 C 
DOCKED: ATOM     20  C   UNL d   1      -3.107 -10.633 -13.044 -0.20 -0.01    +0.066 A 
DOCKED: ATOM     21  C   UNL d   1      -1.813 -10.152 -13.216 -0.18 +0.00    -0.025 A 
DOCKED: ATOM     22  C   UNL d   1      -1.114 -11.140 -13.872 -0.24 +0.00    -0.021 A 
DOCKED: ATOM     23  C   UNL d   1      -2.016 -12.185 -14.093 -0.17 -0.00    +0.066 A 
DOCKED: ATOM     24  C   UNL d   1      -1.271  -8.815 -12.780 -0.29 -0.00    +0.051 C 
DOCKED: ATOM     25  N   UNL d   1      -3.899 -14.406 -14.727 -0.11 -0.03    -0.248 N 
DOCKED: ATOM     26  N   UNL d   1      -6.601 -14.161 -13.671 -0.14 -0.01    -0.248 N 
DOCKED: ATOM     27  N   UNL d   1      -5.940 -11.633 -12.584 -0.14 +0.04    -0.248 N 
DOCKED: ATOM     28  N   UNL d   1      -3.238 -11.854 -13.628 -0.13 +0.01    -0.248 N 
DOCKED: ATOM     29 FE   UNL d   1      -4.909 -12.997 -13.648 -0.04 -0.00    +0.000 Fe
DOCKED: ATOM     30  O   UNL d   1      -5.355 -13.088 -15.136 -0.09 +0.00    +0.000 OA
DOCKED: ATOM     31  O   UNL d   1      -5.229 -11.679 -14.444 -0.10 -0.00    +0.000 OA
DOCKED: ENDROOT
DOCKED: BRANCH   6  32
DOCKED: ATOM     32  C   UNL d   1      -1.010 -15.840 -16.578 -0.03 +0.01    +0.052 C 
DOCKED: BRANCH  32  33
DOCKED: ATOM     33  C   UNL d   1      -0.935 -15.195 -17.958 -0.01 +0.01    +0.115 C 
DOCKED: BRANCH  33  34
DOCKED: ATOM     34  C   UNL d   1      -0.930 -13.688 -17.889 -0.00 +0.01    +0.139 C 
DOCKED: ATOM     35  O   UNL d   1      -1.936 -13.067 -18.194 +0.01 -0.03    -0.650 OA
DOCKED: BRANCH  34  36
DOCKED: ATOM     36  O   UNL d   1       0.173 -13.004 -17.524 +0.02 -0.01    -0.776 OA
DOCKED: ATOM     37  H   UNL d   1       0.188 -12.041 -17.484 +0.01 +0.00    +0.167 HD
DOCKED: ENDBRANCH  34  36
DOCKED: ENDBRANCH  33  34
DOCKED: ENDBRANCH  32  33
DOCKED: ENDBRANCH   6  32
DOCKED: BRANCH  22  38
DOCKED: ATOM     38  C   UNL d   1       0.324 -11.051 -14.317 -0.23 +0.00    +0.052 C 
DOCKED: BRANCH  38  39
DOCKED: ATOM     39  C   UNL d   1       0.554  -9.922 -15.319 -0.13 +0.01    +0.115 C 
DOCKED: BRANCH  39  40
DOCKED: ATOM     40  C   UNL d   1      -0.541  -9.836 -16.352 -0.03 +0.00    +0.139 C 
DOCKED: ATOM     41  O   UNL d   1      -1.543  -9.180 -16.119 +0.03 -0.01    -0.650 OA
DOCKED: BRANCH  40  42
DOCKED: ATOM     42  O   UNL d   1      -0.412 -10.430 -17.554 +0.03 -0.01    -0.776 OA
DOCKED: ATOM     43  H   UNL d   1      -0.958 -11.184 -17.806 +0.01 +0.00    +0.167 HD
DOCKED: ENDBRANCH  40  42
DOCKED: ENDBRANCH  39  40
DOCKED: ENDBRANCH  38  39
DOCKED: ENDBRANCH  22  38
DOCKED: BRANCH  12  44
DOCKED: ATOM     44  C   UNL d   1     -10.027 -15.389 -12.638 -0.24 +0.00    +0.004 C 
DOCKED: ATOM     45  C   UNL d   1     -10.363 -15.894 -11.452 -0.31 +0.00    +0.012 C 
DOCKED: ENDBRANCH  12  44
DOCKED: BRANCH  17  46
DOCKED: ATOM     46  C   UNL d   1      -6.296  -8.283 -11.021 -0.29 -0.00    +0.004 C 
DOCKED: ATOM     47  C   UNL d   1      -6.029  -7.190 -11.748 -0.29 -0.00    +0.012 C 
DOCKED: ENDBRANCH  17  46
DOCKED: TORSDOF 10
DOCKED: TER
DOCKED: ENDMDL
________________________________________________________________________________


	BEGINNING GENETIC ALGORITHM DOCKING 55 of 100
Run: 55 Seed: 362466290 1939984390 [ Run 55 of 100 GA/GALS ]
Beginning LAMARCKIAN GENETIC ALGORITHM (LGA), with a maximum of 25000000 energy evaluations.

Final-Value: -9.554


	FINAL GENETIC ALGORITHM DOCKED STATE
	_______________________________________________


Detailed state:  trans -6.865 -18.176 -16.943 quatxyzw 0.484123 0.359069 -0.333103 0.725077 center 8.287 34.468 -0.670 ntor 10 7.9529 -68.5480 70.1077 -103.3494 -140.8505 135.8414 -174.5988 -148.7014 7.1875 -5.4140
State:	 -6.865 -18.176 -16.943   0.703  0.521 -0.484 87.050      7.95  -68.55   70.11 -103.35 -140.85  135.84 -174.60 -148.70    7.19   -5.41

DOCKED: MODEL       55
DOCKED: USER    Run = 55
DOCKED: USER    DPF = D:/Protein_go_brrr/autodock/final/mut_Y35F/heme_O2/dock.dpf
DOCKED: USER  
DOCKED: USER    Estimated Free Energy of Binding    =   -5.07 kcal/mol  [=(1)+(2)+(3)-(4)]
DOCKED: USER    Estimated Inhibition Constant, Ki   =  191.53 uM (micromolar)  [Temperature = 298.15 K]
DOCKED: USER    
DOCKED: USER    (1) Final Intermolecular Energy     =   -8.05 kcal/mol
DOCKED: USER        vdW + Hbond + desolv Energy     =   -4.68 kcal/mol
DOCKED: USER        Electrostatic Energy            =   -3.38 kcal/mol
DOCKED: USER    (2) Final Total Internal Energy     =   -1.50 kcal/mol
DOCKED: USER    (3) Torsional Free Energy           =   +2.98 kcal/mol
DOCKED: USER    (4) Unbound System's Energy  [=(2)] =   -1.50 kcal/mol
DOCKED: USER    
DOCKED: USER    
DOCKED: USER    NEWDPF move heme_O2_opt.pdbqt
DOCKED: USER    NEWDPF about 8.287000 34.468000 -0.670000
DOCKED: USER    NEWDPF tran0 -6.865313 -18.176321 -16.942958
DOCKED: USER    NEWDPF quaternion0 0.484123 0.359069 -0.333103 0.725077
DOCKED: USER    NEWDPF axisangle0 0.702985 0.521396 -0.483692 87.049510
DOCKED: USER    NEWDPF quat0 0.702985 0.521396 -0.483692 87.049510
DOCKED: USER    NEWDPF dihe0 7.95 -68.55 70.11 -103.35 -140.85 135.84 -174.60 -148.70 7.19 -5.41 
DOCKED: USER  keepresnum = 1 
DOCKED: USER  
DOCKED: REMARK  10 active torsions:
DOCKED: REMARK  status: ('A' for Active; 'I' for Inactive)
DOCKED: REMARK    1  A    between atoms: C_6  and  C_10 
DOCKED: REMARK    2  A    between atoms: C_10  and  C_11 
DOCKED: REMARK    3  A    between atoms: C_11  and  C_12 
DOCKED: REMARK    4  A    between atoms: C_12  and  O_14 
DOCKED: REMARK    5  A    between atoms: C_17  and  C_20 
DOCKED: REMARK    6  A    between atoms: C_24  and  C_27 
DOCKED: REMARK    7  A    between atoms: C_31  and  C_34 
DOCKED: REMARK    8  A    between atoms: C_34  and  C_35 
DOCKED: REMARK    9  A    between atoms: C_35  and  C_36 
DOCKED: REMARK   10  A    between atoms: C_36  and  O_38 
DOCKED: USER                              x       y       z     vdW  Elec       q    Type
DOCKED: USER                           _______ _______ _______ _____ _____    ______ ____
DOCKED: ROOT
DOCKED: ATOM      1  C   UNL d   1      -7.245 -19.914 -18.099 -0.07 +0.05    +0.064 A 
DOCKED: ATOM      2  C   UNL d   1      -9.390 -18.066 -14.286 -0.10 +0.02    +0.064 A 
DOCKED: ATOM      3  C   UNL d   1      -6.231 -14.447 -14.147 -0.21 +0.01    +0.064 C 
DOCKED: ATOM      4  C   UNL d   1      -4.304 -16.077 -18.354 -0.03 +0.01    +0.064 A 
DOCKED: ATOM      5  C   UNL d   1      -8.087 -19.705 -17.074 -0.08 +0.04    +0.066 A 
DOCKED: ATOM      6  C   UNL d   1      -9.149 -20.555 -16.748 -0.06 -0.01    -0.021 A 
DOCKED: ATOM      7  C   UNL d   1      -9.797 -19.998 -15.671 -0.05 -0.01    -0.025 A 
DOCKED: ATOM      8  C   UNL d   1      -9.085 -18.849 -15.338 -0.09 +0.03    +0.066 A 
DOCKED: ATOM      9  C   UNL d   1     -11.054 -20.551 -15.036 -0.02 +0.01    +0.051 C 
DOCKED: ATOM     10  C   UNL d   1      -8.667 -16.862 -13.874 -0.16 +0.01    +0.066 A 
DOCKED: ATOM     11  C   UNL d   1      -8.927 -16.179 -12.681 -0.25 -0.00    -0.021 A 
DOCKED: ATOM     12  C   UNL d   1      -8.014 -15.142 -12.614 -0.33 +0.00    +0.000 A 
DOCKED: ATOM     13  C   UNL d   1      -7.240 -15.247 -13.803 -0.20 +0.01    +0.070 A 
DOCKED: ATOM     14  C   UNL d   1      -9.983 -16.517 -11.635 -0.28 +0.00    +0.052 C 
DOCKED: ATOM     15  C   UNL d   1      -5.446 -14.498 -15.357 -0.10 +0.01    +0.066 A 
DOCKED: ATOM     16  C   UNL d   1      -4.513 -13.534 -15.735 -0.06 -0.00    -0.021 A 
DOCKED: ATOM     17  C   UNL d   1      -3.951 -13.977 -16.933 -0.03 +0.00    +0.000 A 
DOCKED: ATOM     18  C   UNL d   1      -4.591 -15.195 -17.198 -0.04 +0.01    +0.070 A 
DOCKED: ATOM     19  C   UNL d   1      -4.282 -12.262 -14.958 -0.08 +0.00    +0.052 C 
DOCKED: ATOM     20  C   UNL d   1      -4.929 -17.230 -18.661 -0.04 +0.02    +0.066 A 
DOCKED: ATOM     21  C   UNL d   1      -4.602 -18.027 -19.755 -0.02 -0.01    -0.025 A 
DOCKED: ATOM     22  C   UNL d   1      -5.412 -19.138 -19.683 -0.04 -0.01    -0.021 A 
DOCKED: ATOM     23  C   UNL d   1      -6.218 -18.969 -18.553 -0.06 +0.04    +0.066 A 
DOCKED: ATOM     24  C   UNL d   1      -3.573 -17.741 -20.817 -0.00 +0.01    +0.051 C 
DOCKED: ATOM     25  N   UNL d   1      -8.071 -18.634 -16.243 -0.09 -0.14    -0.248 N 
DOCKED: ATOM     26  N   UNL d   1      -7.647 -16.293 -14.566 -0.11 -0.06    -0.248 N 
DOCKED: ATOM     27  N   UNL d   1      -5.547 -15.459 -16.271 -0.05 -0.06    -0.248 N 
DOCKED: ATOM     28  N   UNL d   1      -5.952 -17.787 -17.961 -0.05 -0.13    -0.248 N 
DOCKED: ATOM     29 FE   UNL d   1      -6.792 -17.043 -16.276 -0.02 +0.00    +0.000 Fe
DOCKED: ATOM     30  O   UNL d   1      -8.259 -16.677 -16.646 -0.06 +0.00    +0.000 OA
DOCKED: ATOM     31  O   UNL d   1      -7.066 -16.014 -17.434 -0.05 +0.00    +0.000 OA
DOCKED: ENDROOT
DOCKED: BRANCH   6  32
DOCKED: ATOM     32  C   UNL d   1      -9.623 -21.771 -17.501 -0.02 +0.02    +0.052 C 
DOCKED: BRANCH  32  33
DOCKED: ATOM     33  C   UNL d   1      -8.957 -23.058 -17.027 -0.02 +0.05    +0.115 C 
DOCKED: BRANCH  33  34
DOCKED: ATOM     34  C   UNL d   1      -8.030 -22.830 -15.858 -0.06 +0.12    +0.139 C 
DOCKED: ATOM     35  O   UNL d   1      -8.494 -22.511 -14.774 -0.16 -0.46    -0.650 OA
DOCKED: BRANCH  34  36
DOCKED: ATOM     36  O   UNL d   1      -6.692 -22.943 -15.988 -0.10 -1.54    -0.776 OA
DOCKED: ATOM     37  H   UNL d   1      -6.271 -23.057 -16.848 -0.00 +0.28    +0.167 HD
DOCKED: ENDBRANCH  34  36
DOCKED: ENDBRANCH  33  34
DOCKED: ENDBRANCH  32  33
DOCKED: ENDBRANCH   6  32
DOCKED: BRANCH  22  38
DOCKED: ATOM     38  C   UNL d   1      -5.448 -20.265 -20.683 -0.01 +0.02    +0.052 C 
DOCKED: BRANCH  38  39
DOCKED: ATOM     39  C   UNL d   1      -4.587 -21.451 -20.256 -0.02 +0.05    +0.115 C 
DOCKED: BRANCH  39  40
DOCKED: ATOM     40  C   UNL d   1      -4.498 -21.588 -18.757 +0.04 +0.16    +0.139 C 
DOCKED: ATOM     41  O   UNL d   1      -3.733 -20.876 -18.127 -0.44 -0.98    -0.650 OA
DOCKED: BRANCH  40  42
DOCKED: ATOM     42  O   UNL d   1      -5.288 -22.451 -18.089 -0.22 -1.15    -0.776 OA
DOCKED: ATOM     43  H   UNL d   1      -6.245 -22.333 -18.050 -0.00 +0.21    +0.167 HD
DOCKED: ENDBRANCH  40  42
DOCKED: ENDBRANCH  39  40
DOCKED: ENDBRANCH  38  39
DOCKED: ENDBRANCH  22  38
DOCKED: BRANCH  12  44
DOCKED: ATOM     44  C   UNL d   1      -7.977 -14.177 -11.448 -0.55 -0.00    +0.004 C 
DOCKED: ATOM     45  C   UNL d   1      -8.245 -12.872 -11.456 -0.27 -0.00    +0.012 C 
DOCKED: ENDBRANCH  12  44
DOCKED: BRANCH  17  46
DOCKED: ATOM     46  C   UNL d   1      -2.938 -13.338 -17.845 -0.01 +0.00    +0.004 C 
DOCKED: ATOM     47  C   UNL d   1      -3.128 -12.833 -19.071 -0.00 +0.00    +0.012 C 
DOCKED: ENDBRANCH  17  46
DOCKED: TORSDOF 10
DOCKED: TER
DOCKED: ENDMDL
________________________________________________________________________________


	BEGINNING GENETIC ALGORITHM DOCKING 56 of 100
Run: 56 Seed: 837266387 549071275 [ Run 56 of 100 GA/GALS ]
Beginning LAMARCKIAN GENETIC ALGORITHM (LGA), with a maximum of 25000000 energy evaluations.

Final-Value: -9.050


	FINAL GENETIC ALGORITHM DOCKED STATE
	_______________________________________________


Detailed state:  trans -12.416 5.327 16.478 quatxyzw 0.636468 -0.436217 0.583257 0.253839 center 8.287 34.468 -0.670 ntor 10 78.5580 -78.1311 86.5812 -104.2099 150.7897 169.2865 10.4403 114.1715 -27.7324 178.4911
State:	-12.416   5.327  16.478   0.658 -0.451  0.603 150.590     78.56  -78.13   86.58 -104.21  150.79  169.29   10.44  114.17  -27.73  178.49

DOCKED: MODEL       56
DOCKED: USER    Run = 56
DOCKED: USER    DPF = D:/Protein_go_brrr/autodock/final/mut_Y35F/heme_O2/dock.dpf
DOCKED: USER  
DOCKED: USER    Estimated Free Energy of Binding    =   -5.52 kcal/mol  [=(1)+(2)+(3)-(4)]
DOCKED: USER    Estimated Inhibition Constant, Ki   =   90.02 uM (micromolar)  [Temperature = 298.15 K]
DOCKED: USER    
DOCKED: USER    (1) Final Intermolecular Energy     =   -8.50 kcal/mol
DOCKED: USER        vdW + Hbond + desolv Energy     =   -5.20 kcal/mol
DOCKED: USER        Electrostatic Energy            =   -3.30 kcal/mol
DOCKED: USER    (2) Final Total Internal Energy     =   -0.55 kcal/mol
DOCKED: USER    (3) Torsional Free Energy           =   +2.98 kcal/mol
DOCKED: USER    (4) Unbound System's Energy  [=(2)] =   -0.55 kcal/mol
DOCKED: USER    
DOCKED: USER    
DOCKED: USER    NEWDPF move heme_O2_opt.pdbqt
DOCKED: USER    NEWDPF about 8.287000 34.468000 -0.670000
DOCKED: USER    NEWDPF tran0 -12.416433 5.327272 16.478280
DOCKED: USER    NEWDPF quaternion0 0.636468 -0.436217 0.583257 0.253839
DOCKED: USER    NEWDPF axisangle0 0.658021 -0.450988 0.603007 150.590375
DOCKED: USER    NEWDPF quat0 0.658021 -0.450988 0.603007 150.590375
DOCKED: USER    NEWDPF dihe0 78.56 -78.13 86.58 -104.21 150.79 169.29 10.44 114.17 -27.73 178.49 
DOCKED: USER  keepresnum = 1 
DOCKED: USER  
DOCKED: REMARK  10 active torsions:
DOCKED: REMARK  status: ('A' for Active; 'I' for Inactive)
DOCKED: REMARK    1  A    between atoms: C_6  and  C_10 
DOCKED: REMARK    2  A    between atoms: C_10  and  C_11 
DOCKED: REMARK    3  A    between atoms: C_11  and  C_12 
DOCKED: REMARK    4  A    between atoms: C_12  and  O_14 
DOCKED: REMARK    5  A    between atoms: C_17  and  C_20 
DOCKED: REMARK    6  A    between atoms: C_24  and  C_27 
DOCKED: REMARK    7  A    between atoms: C_31  and  C_34 
DOCKED: REMARK    8  A    between atoms: C_34  and  C_35 
DOCKED: REMARK    9  A    between atoms: C_35  and  C_36 
DOCKED: REMARK   10  A    between atoms: C_36  and  O_38 
DOCKED: USER                              x       y       z     vdW  Elec       q    Type
DOCKED: USER                           _______ _______ _______ _____ _____    ______ ____
DOCKED: ROOT
DOCKED: ATOM      1  C   UNL d   1     -13.230   6.773  15.156 -0.08 +0.03    +0.064 A 
DOCKED: ATOM      2  C   UNL d   1      -9.021   6.422  17.330 -0.17 +0.01    +0.064 A 
DOCKED: ATOM      3  C   UNL d   1     -10.369   2.341  19.481 -0.07 +0.00    +0.064 C 
DOCKED: ATOM      4  C   UNL d   1     -14.527   2.438  16.879 -0.07 +0.01    +0.064 A 
DOCKED: ATOM      5  C   UNL d   1     -11.974   7.009  15.570 -0.11 +0.03    +0.066 A 
DOCKED: ATOM      6  C   UNL d   1     -11.222   8.124  15.190 -0.18 -0.01    -0.021 A 
DOCKED: ATOM      7  C   UNL d   1      -9.987   8.001  15.784 -0.19 -0.01    -0.025 A 
DOCKED: ATOM      8  C   UNL d   1     -10.037   6.839  16.550 -0.16 +0.01    +0.066 A 
DOCKED: ATOM      9  C   UNL d   1      -8.830   8.955  15.582 -0.25 +0.01    +0.051 C 
DOCKED: ATOM     10  C   UNL d   1      -9.023   5.224  18.172 -0.16 +0.00    +0.066 A 
DOCKED: ATOM     11  C   UNL d   1      -8.007   4.925  19.086 -0.15 -0.00    -0.021 A 
DOCKED: ATOM     12  C   UNL d   1      -8.386   3.761  19.729 -0.12 +0.00    +0.000 A 
DOCKED: ATOM     13  C   UNL d   1      -9.634   3.402  19.149 -0.05 +0.00    +0.070 A 
DOCKED: ATOM     14  C   UNL d   1      -6.740   5.730  19.354 -0.11 +0.00    +0.052 C 
DOCKED: ATOM     15  C   UNL d   1     -11.620   1.924  18.894 -0.10 +0.00    +0.066 A 
DOCKED: ATOM     16  C   UNL d   1     -12.259   0.715  19.171 -0.09 -0.00    -0.021 A 
DOCKED: ATOM     17  C   UNL d   1     -13.446   0.720  18.440 -0.07 +0.00    +0.000 A 
DOCKED: ATOM     18  C   UNL d   1     -13.444   1.949  17.764 -0.08 +0.00    +0.070 A 
DOCKED: ATOM     19  C   UNL d   1     -11.659  -0.348  20.056 -0.06 +0.00    +0.052 C 
DOCKED: ATOM     20  C   UNL d   1     -14.537   3.591  16.182 -0.06 +0.01    +0.066 A 
DOCKED: ATOM     21  C   UNL d   1     -15.594   4.007  15.377 -0.06 -0.01    -0.025 A 
DOCKED: ATOM     22  C   UNL d   1     -15.254   5.253  14.900 -0.05 -0.01    -0.021 A 
DOCKED: ATOM     23  C   UNL d   1     -13.988   5.544  15.418 -0.05 +0.02    +0.066 A 
DOCKED: ATOM     24  C   UNL d   1     -16.864   3.253  15.077 +0.02 +0.01    +0.051 C 
DOCKED: ATOM     25  N   UNL d   1     -11.238   6.195  16.366 -0.07 -0.06    -0.248 N 
DOCKED: ATOM     26  N   UNL d   1     -10.012   4.295  18.200 -0.10 +0.00    -0.248 N 
DOCKED: ATOM     27  N   UNL d   1     -12.294   2.632  17.993 -0.08 -0.01    -0.248 N 
DOCKED: ATOM     28  N   UNL d   1     -13.537   4.512  16.160 -0.02 -0.05    -0.248 N 
DOCKED: ATOM     29 FE   UNL d   1     -11.788   4.402  17.173 -0.03 +0.00    +0.000 Fe
DOCKED: ATOM     30  O   UNL d   1     -10.669   4.289  16.098 -0.27 +0.00    +0.000 OA
DOCKED: ATOM     31  O   UNL d   1     -11.815   3.210  16.148 -0.24 +0.00    +0.000 OA
DOCKED: ENDROOT
DOCKED: BRANCH   6  32
DOCKED: ATOM     32  C   UNL d   1     -11.594   9.195  14.198 +0.08 +0.05    +0.052 C 
DOCKED: BRANCH  32  33
DOCKED: ATOM     33  C   UNL d   1     -12.913   9.883  14.537 -0.14 +0.08    +0.115 C 
DOCKED: BRANCH  33  34
DOCKED: ATOM     34  C   UNL d   1     -13.377  10.810  13.440 -0.12 +0.14    +0.139 C 
DOCKED: ATOM     35  O   UNL d   1     -12.703  10.933  12.430 -0.61 -1.19    -0.650 OA
DOCKED: BRANCH  34  36
DOCKED: ATOM     36  O   UNL d   1     -14.510  11.531  13.561 +0.02 -0.37    -0.776 OA
DOCKED: ATOM     37  H   UNL d   1     -14.547  12.342  14.081 +0.01 +0.05    +0.167 HD
DOCKED: ENDBRANCH  34  36
DOCKED: ENDBRANCH  33  34
DOCKED: ENDBRANCH  32  33
DOCKED: ENDBRANCH   6  32
DOCKED: BRANCH  22  38
DOCKED: ATOM     38  C   UNL d   1     -16.075   6.083  13.947 -0.04 +0.02    +0.052 C 
DOCKED: BRANCH  38  39
DOCKED: ATOM     39  C   UNL d   1     -15.922   5.627  12.498 -0.09 +0.07    +0.115 C 
DOCKED: BRANCH  39  40
DOCKED: ATOM     40  C   UNL d   1     -14.534   5.869  11.961 -0.15 +0.17    +0.139 C 
DOCKED: ATOM     41  O   UNL d   1     -13.989   6.944  12.151 -0.22 -1.23    -0.650 OA
DOCKED: BRANCH  40  42
DOCKED: ATOM     42  O   UNL d   1     -13.859   4.898  11.316 -0.33 -1.36    -0.776 OA
DOCKED: ATOM     43  H   UNL d   1     -13.456   4.161  11.792 +0.06 +0.27    +0.167 HD
DOCKED: ENDBRANCH  40  42
DOCKED: ENDBRANCH  39  40
DOCKED: ENDBRANCH  38  39
DOCKED: ENDBRANCH  22  38
DOCKED: BRANCH  12  44
DOCKED: ATOM     44  C   UNL d   1      -7.533   3.124  20.806 -0.08 +0.00    +0.004 C 
DOCKED: ATOM     45  C   UNL d   1      -6.674   2.113  20.678 -0.09 +0.00    +0.012 C 
DOCKED: ENDBRANCH  12  44
DOCKED: BRANCH  17  46
DOCKED: ATOM     46  C   UNL d   1     -14.517  -0.327  18.286 -0.07 -0.00    +0.004 C 
DOCKED: ATOM     47  C   UNL d   1     -14.820  -1.048  17.199 -0.13 -0.00    +0.012 C 
DOCKED: ENDBRANCH  17  46
DOCKED: TORSDOF 10
DOCKED: TER
DOCKED: ENDMDL
________________________________________________________________________________


	BEGINNING GENETIC ALGORITHM DOCKING 57 of 100
Run: 57 Seed: 1733126624 968144548 [ Run 57 of 100 GA/GALS ]
Beginning LAMARCKIAN GENETIC ALGORITHM (LGA), with a maximum of 25000000 energy evaluations.

Final-Value: -10.368


	FINAL GENETIC ALGORITHM DOCKED STATE
	_______________________________________________


Detailed state:  trans 8.444 1.778 12.595 quatxyzw -0.299317 0.178300 0.806497 0.477684 center 8.287 34.468 -0.670 ntor 10 32.2368 -62.7551 -120.7413 102.8627 146.9437 88.0362 -123.1509 -95.9167 -46.7023 -41.8642
State:	  8.444   1.778  12.595  -0.341  0.203  0.918 122.932     32.24  -62.76 -120.74  102.86  146.94   88.04 -123.15  -95.92  -46.70  -41.86

DOCKED: MODEL       57
DOCKED: USER    Run = 57
DOCKED: USER    DPF = D:/Protein_go_brrr/autodock/final/mut_Y35F/heme_O2/dock.dpf
DOCKED: USER  
DOCKED: USER    Estimated Free Energy of Binding    =   -6.19 kcal/mol  [=(1)+(2)+(3)-(4)]
DOCKED: USER    Estimated Inhibition Constant, Ki   =   28.85 uM (micromolar)  [Temperature = 298.15 K]
DOCKED: USER    
DOCKED: USER    (1) Final Intermolecular Energy     =   -9.18 kcal/mol
DOCKED: USER        vdW + Hbond + desolv Energy     =   -6.33 kcal/mol
DOCKED: USER        Electrostatic Energy            =   -2.85 kcal/mol
DOCKED: USER    (2) Final Total Internal Energy     =   -1.19 kcal/mol
DOCKED: USER    (3) Torsional Free Energy           =   +2.98 kcal/mol
DOCKED: USER    (4) Unbound System's Energy  [=(2)] =   -1.19 kcal/mol
DOCKED: USER    
DOCKED: USER    
DOCKED: USER    NEWDPF move heme_O2_opt.pdbqt
DOCKED: USER    NEWDPF about 8.287000 34.468000 -0.670000
DOCKED: USER    NEWDPF tran0 8.444240 1.778192 12.594961
DOCKED: USER    NEWDPF quaternion0 -0.299317 0.178300 0.806497 0.477684
DOCKED: USER    NEWDPF axisangle0 -0.340701 0.202952 0.918005 122.931553
DOCKED: USER    NEWDPF quat0 -0.340701 0.202952 0.918005 122.931553
DOCKED: USER    NEWDPF dihe0 32.24 -62.76 -120.74 102.86 146.94 88.04 -123.15 -95.92 -46.70 -41.86 
DOCKED: USER  keepresnum = 1 
DOCKED: USER  
DOCKED: REMARK  10 active torsions:
DOCKED: REMARK  status: ('A' for Active; 'I' for Inactive)
DOCKED: REMARK    1  A    between atoms: C_6  and  C_10 
DOCKED: REMARK    2  A    between atoms: C_10  and  C_11 
DOCKED: REMARK    3  A    between atoms: C_11  and  C_12 
DOCKED: REMARK    4  A    between atoms: C_12  and  O_14 
DOCKED: REMARK    5  A    between atoms: C_17  and  C_20 
DOCKED: REMARK    6  A    between atoms: C_24  and  C_27 
DOCKED: REMARK    7  A    between atoms: C_31  and  C_34 
DOCKED: REMARK    8  A    between atoms: C_34  and  C_35 
DOCKED: REMARK    9  A    between atoms: C_35  and  C_36 
DOCKED: REMARK   10  A    between atoms: C_36  and  O_38 
DOCKED: USER                              x       y       z     vdW  Elec       q    Type
DOCKED: USER                           _______ _______ _______ _____ _____    ______ ____
DOCKED: ROOT
DOCKED: ATOM      1  C   UNL d   1      10.048   3.128  12.919 -0.04 +0.05    +0.064 A 
DOCKED: ATOM      2  C   UNL d   1       5.388   3.413  13.795 -0.14 +0.01    +0.064 A 
DOCKED: ATOM      3  C   UNL d   1       4.678  -0.961  11.934 -0.19 -0.05    +0.064 C 
DOCKED: ATOM      4  C   UNL d   1       9.535  -1.461  11.465 -0.11 +0.01    +0.064 A 
DOCKED: ATOM      5  C   UNL d   1       8.839   3.562  13.310 -0.08 +0.04    +0.066 A 
DOCKED: ATOM      6  C   UNL d   1       8.605   4.814  13.886 -0.07 -0.01    -0.021 A 
DOCKED: ATOM      7  C   UNL d   1       7.263   4.880  14.180 -0.10 -0.01    -0.025 A 
DOCKED: ATOM      8  C   UNL d   1       6.706   3.686  13.731 -0.10 +0.01    +0.066 A 
DOCKED: ATOM      9  C   UNL d   1       6.587   6.036  14.885 -0.14 +0.01    +0.051 C 
DOCKED: ATOM     10  C   UNL d   1       4.743   2.188  13.320 -0.14 -0.00    +0.066 A 
DOCKED: ATOM     11  C   UNL d   1       3.355   2.024  13.260 -0.21 +0.00    -0.021 A 
DOCKED: ATOM     12  C   UNL d   1       3.129   0.775  12.709 -0.27 -0.00    +0.000 A 
DOCKED: ATOM     13  C   UNL d   1       4.422   0.232  12.470 -0.19 -0.03    +0.070 A 
DOCKED: ATOM     14  C   UNL d   1       2.287   3.026  13.684 -0.35 -0.01    +0.052 C 
DOCKED: ATOM     15  C   UNL d   1       5.971  -1.561  11.709 -0.21 -0.03    +0.066 A 
DOCKED: ATOM     16  C   UNL d   1       6.169  -2.879  11.297 -0.24 +0.01    -0.021 A 
DOCKED: ATOM     17  C   UNL d   1       7.547  -3.045  11.157 -0.17 -0.00    +0.000 A 
DOCKED: ATOM     18  C   UNL d   1       8.093  -1.799  11.497 -0.12 -0.00    +0.070 A 
DOCKED: ATOM     19  C   UNL d   1       5.043  -3.867  11.129 +0.04 -0.05    +0.052 C 
DOCKED: ATOM     20  C   UNL d   1      10.096  -0.290  11.825 -0.10 +0.02    +0.066 A 
DOCKED: ATOM     21  C   UNL d   1      11.461  -0.025  11.757 -0.10 -0.01    -0.025 A 
DOCKED: ATOM     22  C   UNL d   1      11.622   1.287  12.141 -0.09 -0.01    -0.021 A 
DOCKED: ATOM     23  C   UNL d   1      10.347   1.770  12.449 -0.07 +0.05    +0.066 A 
DOCKED: ATOM     24  C   UNL d   1      12.556  -0.976  11.348 -0.07 +0.01    +0.051 C 
DOCKED: ATOM     25  N   UNL d   1       7.688   2.848  13.255 -0.05 -0.09    -0.248 N 
DOCKED: ATOM     26  N   UNL d   1       5.398   1.096  12.849 -0.07 +0.02    -0.248 N 
DOCKED: ATOM     27  N   UNL d   1       7.128  -0.934  11.901 -0.07 +0.02    -0.248 N 
DOCKED: ATOM     28  N   UNL d   1       9.427   0.795  12.299 -0.07 -0.11    -0.248 N 
DOCKED: ATOM     29 FE   UNL d   1       7.427   0.942  12.571 -0.02 +0.00    +0.000 Fe
DOCKED: ATOM     30  O   UNL d   1       7.207   1.094  14.105 -0.05 +0.00    +0.000 OA
DOCKED: ATOM     31  O   UNL d   1       7.955  -0.174  13.546 -0.05 +0.00    +0.000 OA
DOCKED: ENDROOT
DOCKED: BRANCH   6  32
DOCKED: ATOM     32  C   UNL d   1       9.622   5.856  14.274 -0.04 +0.02    +0.052 C 
DOCKED: BRANCH  32  33
DOCKED: ATOM     33  C   UNL d   1      10.783   5.945  13.289 -0.05 +0.06    +0.115 C 
DOCKED: BRANCH  33  34
DOCKED: ATOM     34  C   UNL d   1      10.320   6.172  11.872 +0.00 +0.15    +0.139 C 
DOCKED: ATOM     35  O   UNL d   1       9.125   6.189  11.623 -0.36 -0.71    -0.650 OA
DOCKED: BRANCH  34  36
DOCKED: ATOM     36  O   UNL d   1      11.199   6.331  10.861 -0.02 -1.00    -0.776 OA
DOCKED: ATOM     37  H   UNL d   1      12.054   5.885  10.852 +0.01 +0.21    +0.167 HD
DOCKED: ENDBRANCH  34  36
DOCKED: ENDBRANCH  33  34
DOCKED: ENDBRANCH  32  33
DOCKED: ENDBRANCH   6  32
DOCKED: BRANCH  22  38
DOCKED: ATOM     38  C   UNL d   1      12.938   2.010  12.266 -0.06 +0.03    +0.052 C 
DOCKED: BRANCH  38  39
DOCKED: ATOM     39  C   UNL d   1      13.701   2.063  10.944 -0.07 +0.07    +0.115 C 
DOCKED: BRANCH  39  40
DOCKED: ATOM     40  C   UNL d   1      13.237   3.189  10.055 +0.01 +0.17    +0.139 C 
DOCKED: ATOM     41  O   UNL d   1      12.909   2.955   8.902 -0.33 -0.94    -0.650 OA
DOCKED: BRANCH  40  42
DOCKED: ATOM     42  O   UNL d   1      13.127   4.446  10.525 -0.32 -0.96    -0.776 OA
DOCKED: ATOM     43  H   UNL d   1      12.539   4.661  11.259 +0.00 +0.21    +0.167 HD
DOCKED: ENDBRANCH  40  42
DOCKED: ENDBRANCH  39  40
DOCKED: ENDBRANCH  38  39
DOCKED: ENDBRANCH  22  38
DOCKED: BRANCH  12  44
DOCKED: ATOM     44  C   UNL d   1       1.732   0.240  12.476 -0.44 -0.00    +0.004 C 
DOCKED: ATOM     45  C   UNL d   1       0.742   0.808  11.789 -0.63 -0.00    +0.012 C 
DOCKED: ENDBRANCH  12  44
DOCKED: BRANCH  17  46
DOCKED: ATOM     46  C   UNL d   1       8.365  -4.256  10.798 -0.15 -0.00    +0.004 C 
DOCKED: ATOM     47  C   UNL d   1       8.839  -4.610   9.596 -0.25 +0.00    +0.012 C 
DOCKED: ENDBRANCH  17  46
DOCKED: TORSDOF 10
DOCKED: TER
DOCKED: ENDMDL
________________________________________________________________________________


	BEGINNING GENETIC ALGORITHM DOCKING 58 of 100
Run: 58 Seed: 1040281452 994218273 [ Run 58 of 100 GA/GALS ]
Beginning LAMARCKIAN GENETIC ALGORITHM (LGA), with a maximum of 25000000 energy evaluations.

Final-Value: -10.941


	FINAL GENETIC ALGORITHM DOCKED STATE
	_______________________________________________


Detailed state:  trans 11.091 13.422 7.961 quatxyzw 0.356464 0.625076 -0.183224 -0.669808 center 8.287 34.468 -0.670 ntor 10 125.9330 136.6464 25.9891 37.4754 -177.9772 -73.6226 -68.3123 99.9232 -176.7995 180.0000
State:	 11.091  13.422   7.961   0.480  0.842 -0.247 -95.896    125.93  136.65   25.99   37.48 -177.98  -73.62  -68.31   99.92 -176.80  180.00

DOCKED: MODEL       58
DOCKED: USER    Run = 58
DOCKED: USER    DPF = D:/Protein_go_brrr/autodock/final/mut_Y35F/heme_O2/dock.dpf
DOCKED: USER  
DOCKED: USER    Estimated Free Energy of Binding    =   -5.53 kcal/mol  [=(1)+(2)+(3)-(4)]
DOCKED: USER    Estimated Inhibition Constant, Ki   =   88.52 uM (micromolar)  [Temperature = 298.15 K]
DOCKED: USER    
DOCKED: USER    (1) Final Intermolecular Energy     =   -8.51 kcal/mol
DOCKED: USER        vdW + Hbond + desolv Energy     =   -6.96 kcal/mol
DOCKED: USER        Electrostatic Energy            =   -1.55 kcal/mol
DOCKED: USER    (2) Final Total Internal Energy     =   -2.43 kcal/mol
DOCKED: USER    (3) Torsional Free Energy           =   +2.98 kcal/mol
DOCKED: USER    (4) Unbound System's Energy  [=(2)] =   -2.43 kcal/mol
DOCKED: USER    
DOCKED: USER    
DOCKED: USER    NEWDPF move heme_O2_opt.pdbqt
DOCKED: USER    NEWDPF about 8.287000 34.468000 -0.670000
DOCKED: USER    NEWDPF tran0 11.090721 13.422370 7.960527
DOCKED: USER    NEWDPF quaternion0 0.356464 0.625076 -0.183224 -0.669808
DOCKED: USER    NEWDPF axisangle0 0.480064 0.841814 -0.246755 -95.895508
DOCKED: USER    NEWDPF quat0 0.480064 0.841814 -0.246755 -95.895508
DOCKED: USER    NEWDPF dihe0 125.93 136.65 25.99 37.48 -177.98 -73.62 -68.31 99.92 -176.80 180.00 
DOCKED: USER  keepresnum = 1 
DOCKED: USER  
DOCKED: REMARK  10 active torsions:
DOCKED: REMARK  status: ('A' for Active; 'I' for Inactive)
DOCKED: REMARK    1  A    between atoms: C_6  and  C_10 
DOCKED: REMARK    2  A    between atoms: C_10  and  C_11 
DOCKED: REMARK    3  A    between atoms: C_11  and  C_12 
DOCKED: REMARK    4  A    between atoms: C_12  and  O_14 
DOCKED: REMARK    5  A    between atoms: C_17  and  C_20 
DOCKED: REMARK    6  A    between atoms: C_24  and  C_27 
DOCKED: REMARK    7  A    between atoms: C_31  and  C_34 
DOCKED: REMARK    8  A    between atoms: C_34  and  C_35 
DOCKED: REMARK    9  A    between atoms: C_35  and  C_36 
DOCKED: REMARK   10  A    between atoms: C_36  and  O_38 
DOCKED: USER                              x       y       z     vdW  Elec       q    Type
DOCKED: USER                           _______ _______ _______ _____ _____    ______ ____
DOCKED: ROOT
DOCKED: ATOM      1  C   UNL d   1      10.658  14.022   9.949 -0.25 +0.02    +0.064 A 
DOCKED: ATOM      2  C   UNL d   1      11.571   9.787   8.002 -0.11 +0.01    +0.064 A 
DOCKED: ATOM      3  C   UNL d   1      11.994  11.777   3.648 -0.21 -0.01    +0.064 C 
DOCKED: ATOM      4  C   UNL d   1      11.529  16.201   5.714 -0.13 -0.01    +0.064 A 
DOCKED: ATOM      5  C   UNL d   1      10.874  12.708   9.775 -0.23 +0.02    +0.066 A 
DOCKED: ATOM      6  C   UNL d   1      10.816  11.762  10.803 -0.18 -0.01    -0.021 A 
DOCKED: ATOM      7  C   UNL d   1      11.123  10.542  10.248 -0.15 -0.01    -0.025 A 
DOCKED: ATOM      8  C   UNL d   1      11.312  10.768   8.887 -0.14 +0.01    +0.066 A 
DOCKED: ATOM      9  C   UNL d   1      11.250   9.247  11.021 -0.11 +0.02    +0.051 C 
DOCKED: ATOM     10  C   UNL d   1      11.756   9.960   6.560 -0.10 +0.01    +0.066 A 
DOCKED: ATOM     11  C   UNL d   1      11.860   8.890   5.664 -0.15 -0.00    -0.021 A 
DOCKED: ATOM     12  C   UNL d   1      11.965   9.443   4.401 -0.24 +0.00    +0.000 A 
DOCKED: ATOM     13  C   UNL d   1      11.930  10.851   4.604 -0.17 -0.00    +0.070 A 
DOCKED: ATOM     14  C   UNL d   1      11.833   7.403   5.996 -0.19 +0.02    +0.052 C 
DOCKED: ATOM     15  C   UNL d   1      11.998  13.210   3.815 -0.17 -0.01    +0.066 A 
DOCKED: ATOM     16  C   UNL d   1      12.233  14.125   2.789 -0.21 +0.00    -0.021 A 
DOCKED: ATOM     17  C   UNL d   1      12.106  15.393   3.354 -0.11 -0.00    +0.000 A 
DOCKED: ATOM     18  C   UNL d   1      11.798  15.154   4.701 -0.11 -0.01    +0.070 A 
DOCKED: ATOM     19  C   UNL d   1      12.608  13.711   1.388 -0.40 -0.02    +0.052 C 
DOCKED: ATOM     20  C   UNL d   1      11.273  16.008   7.023 -0.18 -0.01    +0.066 A 
DOCKED: ATOM     21  C   UNL d   1      11.010  17.034   7.926 -0.13 +0.00    -0.025 A 
DOCKED: ATOM     22  C   UNL d   1      10.733  16.430   9.132 -0.23 -0.00    -0.021 A 
DOCKED: ATOM     23  C   UNL d   1      10.855  15.053   8.923 -0.24 +0.01    +0.066 A 
DOCKED: ATOM     24  C   UNL d   1      11.026  18.516   7.654 -0.13 -0.01    +0.051 C 
DOCKED: ATOM     25  N   UNL d   1      11.223  12.112   8.608 -0.08 -0.04    -0.248 N 
DOCKED: ATOM     26  N   UNL d   1      11.808  11.156   5.921 -0.04 -0.02    -0.248 N 
DOCKED: ATOM     27  N   UNL d   1      11.810  13.825   4.979 -0.06 +0.02    -0.248 N 
DOCKED: ATOM     28  N   UNL d   1      11.228  14.803   7.651 -0.13 +0.00    -0.248 N 
DOCKED: ATOM     29 FE   UNL d   1      11.517  12.994   6.790 -0.04 +0.00    +0.000 Fe
DOCKED: ATOM     30  O   UNL d   1      12.814  12.414   7.423 -0.09 +0.00    +0.000 OA
DOCKED: ATOM     31  O   UNL d   1      12.865  13.795   6.668 -0.09 +0.00    +0.000 OA
DOCKED: ENDROOT
DOCKED: BRANCH   6  32
DOCKED: ATOM     32  C   UNL d   1      10.617  12.011  12.275 -0.20 +0.04    +0.052 C 
DOCKED: BRANCH  32  33
DOCKED: ATOM     33  C   UNL d   1      11.932  12.145  13.037 -0.10 +0.07    +0.115 C 
DOCKED: BRANCH  33  34
DOCKED: ATOM     34  C   UNL d   1      12.188  13.558  13.500 -0.08 +0.11    +0.139 C 
DOCKED: ATOM     35  O   UNL d   1      11.245  14.281  13.779 -0.45 -1.23    -0.650 OA
DOCKED: BRANCH  34  36
DOCKED: ATOM     36  O   UNL d   1      13.440  14.054  13.587 +0.01 -0.31    -0.776 OA
DOCKED: ATOM     37  H   UNL d   1      13.695  14.875  13.151 +0.01 +0.05    +0.167 HD
DOCKED: ENDBRANCH  34  36
DOCKED: ENDBRANCH  33  34
DOCKED: ENDBRANCH  32  33
DOCKED: ENDBRANCH   6  32
DOCKED: BRANCH  22  38
DOCKED: ATOM     38  C   UNL d   1      10.431  17.145  10.424 -0.19 +0.01    +0.052 C 
DOCKED: BRANCH  38  39
DOCKED: ATOM     39  C   UNL d   1      11.691  17.686  11.097 -0.09 +0.02    +0.115 C 
DOCKED: BRANCH  39  40
DOCKED: ATOM     40  C   UNL d   1      12.425  16.627  11.881 -0.07 +0.04    +0.139 C 
DOCKED: ATOM     41  O   UNL d   1      13.016  15.737  11.291 +0.02 -0.14    -0.650 OA
DOCKED: BRANCH  40  42
DOCKED: ATOM     42  O   UNL d   1      12.485  16.674  13.226 +0.01 -0.29    -0.776 OA
DOCKED: ATOM     43  H   UNL d   1      12.397  15.877  13.763 +0.01 +0.10    +0.167 HD
DOCKED: ENDBRANCH  40  42
DOCKED: ENDBRANCH  39  40
DOCKED: ENDBRANCH  38  39
DOCKED: ENDBRANCH  22  38
DOCKED: BRANCH  12  44
DOCKED: ATOM     44  C   UNL d   1      12.088   8.589   3.157 -0.47 -0.00    +0.004 C 
DOCKED: ATOM     45  C   UNL d   1      12.578   8.939   1.968 -0.34 -0.00    +0.012 C 
DOCKED: ENDBRANCH  12  44
DOCKED: BRANCH  17  46
DOCKED: ATOM     46  C   UNL d   1      12.303  16.763   2.763 -0.10 -0.00    +0.004 C 
DOCKED: ATOM     47  C   UNL d   1      12.103  17.156   1.498 -0.15 -0.01    +0.012 C 
DOCKED: ENDBRANCH  17  46
DOCKED: TORSDOF 10
DOCKED: TER
DOCKED: ENDMDL
________________________________________________________________________________


	BEGINNING GENETIC ALGORITHM DOCKING 59 of 100
Run: 59 Seed: 898999319 1704736739 [ Run 59 of 100 GA/GALS ]
Beginning LAMARCKIAN GENETIC ALGORITHM (LGA), with a maximum of 25000000 energy evaluations.

Final-Value: -10.159


	FINAL GENETIC ALGORITHM DOCKED STATE
	_______________________________________________


Detailed state:  trans 10.029 17.651 7.689 quatxyzw -0.357415 -0.838880 -0.026262 0.409689 center 8.287 34.468 -0.670 ntor 10 -85.1199 -2.0850 -9.7764 118.6879 69.9929 -72.6117 9.2683 -13.2536 1.8854 23.1120
State:	 10.029  17.651   7.689  -0.392 -0.920 -0.029 131.629    -85.12   -2.09   -9.78  118.69   69.99  -72.61    9.27  -13.25    1.89   23.11

DOCKED: MODEL       59
DOCKED: USER    Run = 59
DOCKED: USER    DPF = D:/Protein_go_brrr/autodock/final/mut_Y35F/heme_O2/dock.dpf
DOCKED: USER  
DOCKED: USER    Estimated Free Energy of Binding    =   -5.71 kcal/mol  [=(1)+(2)+(3)-(4)]
DOCKED: USER    Estimated Inhibition Constant, Ki   =   64.83 uM (micromolar)  [Temperature = 298.15 K]
DOCKED: USER    
DOCKED: USER    (1) Final Intermolecular Energy     =   -8.70 kcal/mol
DOCKED: USER        vdW + Hbond + desolv Energy     =   -6.81 kcal/mol
DOCKED: USER        Electrostatic Energy            =   -1.88 kcal/mol
DOCKED: USER    (2) Final Total Internal Energy     =   -1.46 kcal/mol
DOCKED: USER    (3) Torsional Free Energy           =   +2.98 kcal/mol
DOCKED: USER    (4) Unbound System's Energy  [=(2)] =   -1.46 kcal/mol
DOCKED: USER    
DOCKED: USER    
DOCKED: USER    NEWDPF move heme_O2_opt.pdbqt
DOCKED: USER    NEWDPF about 8.287000 34.468000 -0.670000
DOCKED: USER    NEWDPF tran0 10.028628 17.651215 7.688672
DOCKED: USER    NEWDPF quaternion0 -0.357415 -0.838880 -0.026262 0.409689
DOCKED: USER    NEWDPF axisangle0 -0.391806 -0.919597 -0.028789 131.629368
DOCKED: USER    NEWDPF quat0 -0.391806 -0.919597 -0.028789 131.629368
DOCKED: USER    NEWDPF dihe0 -85.12 -2.09 -9.78 118.69 69.99 -72.61 9.27 -13.25 1.89 23.11 
DOCKED: USER  keepresnum = 1 
DOCKED: USER  
DOCKED: REMARK  10 active torsions:
DOCKED: REMARK  status: ('A' for Active; 'I' for Inactive)
DOCKED: REMARK    1  A    between atoms: C_6  and  C_10 
DOCKED: REMARK    2  A    between atoms: C_10  and  C_11 
DOCKED: REMARK    3  A    between atoms: C_11  and  C_12 
DOCKED: REMARK    4  A    between atoms: C_12  and  O_14 
DOCKED: REMARK    5  A    between atoms: C_17  and  C_20 
DOCKED: REMARK    6  A    between atoms: C_24  and  C_27 
DOCKED: REMARK    7  A    between atoms: C_31  and  C_34 
DOCKED: REMARK    8  A    between atoms: C_34  and  C_35 
DOCKED: REMARK    9  A    between atoms: C_35  and  C_36 
DOCKED: REMARK   10  A    between atoms: C_36  and  O_38 
DOCKED: USER                              x       y       z     vdW  Elec       q    Type
DOCKED: USER                           _______ _______ _______ _____ _____    ______ ____
DOCKED: ROOT
DOCKED: ATOM      1  C   UNL d   1      10.576  17.136   9.672 -0.20 +0.00    +0.064 A 
DOCKED: ATOM      2  C   UNL d   1      11.137  14.917   5.510 -0.12 -0.01    +0.064 A 
DOCKED: ATOM      3  C   UNL d   1       8.877  18.476   3.203 -0.23 -0.01    +0.064 C 
DOCKED: ATOM      4  C   UNL d   1       8.717  20.992   7.412 -0.12 -0.01    +0.064 A 
DOCKED: ATOM      5  C   UNL d   1      10.915  16.243   8.728 -0.20 -0.00    +0.066 A 
DOCKED: ATOM      6  C   UNL d   1      11.574  15.038   8.990 -0.19 -0.00    -0.021 A 
DOCKED: ATOM      7  C   UNL d   1      11.775  14.415   7.781 -0.13 -0.00    -0.025 A 
DOCKED: ATOM      8  C   UNL d   1      11.191  15.234   6.818 -0.14 -0.01    +0.066 A 
DOCKED: ATOM      9  C   UNL d   1      12.523  13.113   7.592 -0.10 +0.00    +0.051 C 
DOCKED: ATOM     10  C   UNL d   1      10.518  15.724   4.458 -0.22 -0.01    +0.066 A 
DOCKED: ATOM     11  C   UNL d   1      10.345  15.273   3.144 -0.27 +0.00    -0.021 A 
DOCKED: ATOM     12  C   UNL d   1       9.679  16.279   2.468 -0.28 -0.00    +0.000 A 
DOCKED: ATOM     13  C   UNL d   1       9.490  17.313   3.425 -0.22 -0.02    +0.070 A 
DOCKED: ATOM     14  C   UNL d   1      10.773  13.930   2.566 -0.35 -0.01    +0.052 C 
DOCKED: ATOM     15  C   UNL d   1       8.696  19.563   4.135 -0.13 -0.01    +0.066 A 
DOCKED: ATOM     16  C   UNL d   1       8.192  20.819   3.797 -0.08 +0.00    -0.021 A 
DOCKED: ATOM     17  C   UNL d   1       8.138  21.554   4.981 -0.05 -0.00    +0.000 A 
DOCKED: ATOM     18  C   UNL d   1       8.618  20.679   5.967 -0.04 -0.01    +0.070 A 
DOCKED: ATOM     19  C   UNL d   1       7.863  21.219   2.381 -0.09 -0.01    +0.052 C 
DOCKED: ATOM     20  C   UNL d   1       9.212  20.193   8.376 -0.18 -0.01    +0.066 A 
DOCKED: ATOM     21  C   UNL d   1       9.263  20.536   9.724 -0.12 +0.00    -0.025 A 
DOCKED: ATOM     22  C   UNL d   1       9.765  19.439  10.387 -0.15 +0.00    -0.021 A 
DOCKED: ATOM     23  C   UNL d   1      10.019  18.469   9.413 -0.18 -0.00    +0.066 A 
DOCKED: ATOM     24  C   UNL d   1       8.857  21.846  10.348 -0.06 -0.00    +0.051 C 
DOCKED: ATOM     25  N   UNL d   1      10.719  16.390   7.395 -0.12 +0.05    -0.248 N 
DOCKED: ATOM     26  N   UNL d   1      10.007  16.969   4.632 -0.16 +0.06    -0.248 N 
DOCKED: ATOM     27  N   UNL d   1       9.021  19.502   5.423 -0.10 +0.05    -0.248 N 
DOCKED: ATOM     28  N   UNL d   1       9.724  18.948   8.187 -0.13 +0.05    -0.248 N 
DOCKED: ATOM     29 FE   UNL d   1       9.864  17.968   6.421 -0.05 -0.00    +0.000 Fe
DOCKED: ATOM     30  O   UNL d   1      11.385  17.803   6.135 -0.12 -0.00    +0.000 OA
DOCKED: ATOM     31  O   UNL d   1      10.778  19.244   6.326 -0.11 -0.00    +0.000 OA
DOCKED: ENDROOT
DOCKED: BRANCH   6  32
DOCKED: ATOM     32  C   UNL d   1      12.117  14.552  10.309 -0.13 +0.01    +0.052 C 
DOCKED: BRANCH  32  33
DOCKED: ATOM     33  C   UNL d   1      11.069  13.832  11.153 -0.13 +0.06    +0.115 C 
DOCKED: BRANCH  33  34
DOCKED: ATOM     34  C   UNL d   1      11.573  13.500  12.535 -0.12 +0.11    +0.139 C 
DOCKED: ATOM     35  O   UNL d   1      12.274  12.514  12.701 -0.01 -0.34    -0.650 OA
DOCKED: BRANCH  34  36
DOCKED: ATOM     36  O   UNL d   1      11.244  14.254  13.604 -0.43 -1.37    -0.776 OA
DOCKED: ATOM     37  H   UNL d   1      11.736  15.050  13.838 +0.01 +0.19    +0.167 HD
DOCKED: ENDBRANCH  34  36
DOCKED: ENDBRANCH  33  34
DOCKED: ENDBRANCH  32  33
DOCKED: ENDBRANCH   6  32
DOCKED: BRANCH  22  38
DOCKED: ATOM     38  C   UNL d   1      10.042  19.357  11.866 -0.11 +0.00    +0.052 C 
DOCKED: BRANCH  38  39
DOCKED: ATOM     39  C   UNL d   1       9.334  18.176  12.527 -0.13 +0.04    +0.115 C 
DOCKED: BRANCH  39  40
DOCKED: ATOM     40  C   UNL d   1       9.870  17.881  13.906 -0.08 +0.07    +0.139 C 
DOCKED: ATOM     41  O   UNL d   1       9.619  18.640  14.828 -0.01 -0.22    -0.650 OA
DOCKED: BRANCH  40  42
DOCKED: ATOM     42  O   UNL d   1      10.580  16.763  14.151 -0.04 -0.73    -0.776 OA
DOCKED: ATOM     43  H   UNL d   1      10.775  16.126  13.454 +0.01 +0.18    +0.167 HD
DOCKED: ENDBRANCH  40  42
DOCKED: ENDBRANCH  39  40
DOCKED: ENDBRANCH  38  39
DOCKED: ENDBRANCH  22  38
DOCKED: BRANCH  12  44
DOCKED: ATOM     44  C   UNL d   1       9.303  16.152   1.006 -0.41 -0.00    +0.004 C 
DOCKED: ATOM     45  C   UNL d   1       8.454  16.907   0.311 -0.39 -0.00    +0.012 C 
DOCKED: ENDBRANCH  12  44
DOCKED: BRANCH  17  46
DOCKED: ATOM     46  C   UNL d   1       7.740  22.982   5.240 -0.10 -0.00    +0.004 C 
DOCKED: ATOM     47  C   UNL d   1       6.668  23.437   5.901 -0.11 -0.00    +0.012 C 
DOCKED: ENDBRANCH  17  46
DOCKED: TORSDOF 10
DOCKED: TER
DOCKED: ENDMDL
________________________________________________________________________________


	BEGINNING GENETIC ALGORITHM DOCKING 60 of 100
Run: 60 Seed: 445380193 1107505337 [ Run 60 of 100 GA/GALS ]
Beginning LAMARCKIAN GENETIC ALGORITHM (LGA), with a maximum of 25000000 energy evaluations.

Final-Value: -8.402


	FINAL GENETIC ALGORITHM DOCKED STATE
	_______________________________________________


Detailed state:  trans -14.319 -0.402 -4.047 quatxyzw -0.337908 -0.235343 0.691986 0.592948 center 8.287 34.468 -0.670 ntor 10 74.3657 -82.0276 67.5174 -120.5014 -117.4724 -45.6290 61.4349 -46.1568 180.0000 -146.2135
State:	-14.319  -0.402  -4.047  -0.420 -0.292  0.859 107.267     74.37  -82.03   67.52 -120.50 -117.47  -45.63   61.43  -46.16  180.00 -146.21

DOCKED: MODEL       60
DOCKED: USER    Run = 60
DOCKED: USER    DPF = D:/Protein_go_brrr/autodock/final/mut_Y35F/heme_O2/dock.dpf
DOCKED: USER  
DOCKED: USER    Estimated Free Energy of Binding    =   -4.83 kcal/mol  [=(1)+(2)+(3)-(4)]
DOCKED: USER    Estimated Inhibition Constant, Ki   =  288.57 uM (micromolar)  [Temperature = 298.15 K]
DOCKED: USER    
DOCKED: USER    (1) Final Intermolecular Energy     =   -7.81 kcal/mol
DOCKED: USER        vdW + Hbond + desolv Energy     =   -6.88 kcal/mol
DOCKED: USER        Electrostatic Energy            =   -0.94 kcal/mol
DOCKED: USER    (2) Final Total Internal Energy     =   -0.59 kcal/mol
DOCKED: USER    (3) Torsional Free Energy           =   +2.98 kcal/mol
DOCKED: USER    (4) Unbound System's Energy  [=(2)] =   -0.59 kcal/mol
DOCKED: USER    
DOCKED: USER    
DOCKED: USER    NEWDPF move heme_O2_opt.pdbqt
DOCKED: USER    NEWDPF about 8.287000 34.468000 -0.670000
DOCKED: USER    NEWDPF tran0 -14.319304 -0.401794 -4.047308
DOCKED: USER    NEWDPF quaternion0 -0.337908 -0.235343 0.691986 0.592948
DOCKED: USER    NEWDPF axisangle0 -0.419636 -0.292264 0.859353 107.266957
DOCKED: USER    NEWDPF quat0 -0.419636 -0.292264 0.859353 107.266957
DOCKED: USER    NEWDPF dihe0 74.37 -82.03 67.52 -120.50 -117.47 -45.63 61.43 -46.16 180.00 -146.21 
DOCKED: USER  keepresnum = 1 
DOCKED: USER  
DOCKED: REMARK  10 active torsions:
DOCKED: REMARK  status: ('A' for Active; 'I' for Inactive)
DOCKED: REMARK    1  A    between atoms: C_6  and  C_10 
DOCKED: REMARK    2  A    between atoms: C_10  and  C_11 
DOCKED: REMARK    3  A    between atoms: C_11  and  C_12 
DOCKED: REMARK    4  A    between atoms: C_12  and  O_14 
DOCKED: REMARK    5  A    between atoms: C_17  and  C_20 
DOCKED: REMARK    6  A    between atoms: C_24  and  C_27 
DOCKED: REMARK    7  A    between atoms: C_31  and  C_34 
DOCKED: REMARK    8  A    between atoms: C_34  and  C_35 
DOCKED: REMARK    9  A    between atoms: C_35  and  C_36 
DOCKED: REMARK   10  A    between atoms: C_36  and  O_38 
DOCKED: USER                              x       y       z     vdW  Elec       q    Type
DOCKED: USER                           _______ _______ _______ _____ _____    ______ ____
DOCKED: ROOT
DOCKED: ATOM      1  C   UNL d   1     -13.451   1.304  -3.134 -0.15 +0.00    +0.064 A 
DOCKED: ATOM      2  C   UNL d   1     -16.902  -1.658  -1.767 +0.03 +0.03    +0.064 A 
DOCKED: ATOM      3  C   UNL d   1     -16.493  -4.165  -5.846 -0.10 +0.01    +0.064 C 
DOCKED: ATOM      4  C   UNL d   1     -12.616  -1.412  -7.054 -0.14 +0.01    +0.064 A 
DOCKED: ATOM      5  C   UNL d   1     -14.421   0.702  -2.429 -0.15 +0.01    +0.066 A 
DOCKED: ATOM      6  C   UNL d   1     -14.869   1.141  -1.179 -0.14 -0.00    -0.021 A 
DOCKED: ATOM      7  C   UNL d   1     -15.838   0.259  -0.763 -0.14 -0.00    -0.025 A 
DOCKED: ATOM      8  C   UNL d   1     -15.990  -0.667  -1.791 -0.12 +0.02    +0.066 A 
DOCKED: ATOM      9  C   UNL d   1     -16.541   0.314   0.576 -0.16 +0.01    +0.051 C 
DOCKED: ATOM     10  C   UNL d   1     -17.124  -2.646  -2.824 -0.03 +0.02    +0.066 A 
DOCKED: ATOM     11  C   UNL d   1     -18.191  -3.550  -2.821 -0.06 -0.01    -0.021 A 
DOCKED: ATOM     12  C   UNL d   1     -18.101  -4.270  -3.998 -0.09 +0.00    +0.000 A 
DOCKED: ATOM     13  C   UNL d   1     -16.951  -3.761  -4.662 -0.10 +0.01    +0.070 A 
DOCKED: ATOM     14  C   UNL d   1     -19.267  -3.703  -1.752 -0.07 +0.03    +0.052 C 
DOCKED: ATOM     15  C   UNL d   1     -15.313  -3.700  -6.535 -0.11 +0.01    +0.066 A 
DOCKED: ATOM     16  C   UNL d   1     -14.795  -4.277  -7.694 -0.12 -0.00    -0.021 A 
DOCKED: ATOM     17  C   UNL d   1     -13.689  -3.510  -8.057 -0.15 +0.00    +0.000 A 
DOCKED: ATOM     18  C   UNL d   1     -13.615  -2.507  -7.080 -0.14 +0.01    +0.070 A 
DOCKED: ATOM     19  C   UNL d   1     -15.363  -5.529  -8.314 -0.15 +0.00    +0.052 C 
DOCKED: ATOM     20  C   UNL d   1     -12.490  -0.460  -6.109 -0.13 +0.01    +0.066 A 
DOCKED: ATOM     21  C   UNL d   1     -11.540   0.556  -6.147 -0.17 -0.00    -0.025 A 
DOCKED: ATOM     22  C   UNL d   1     -11.780   1.356  -5.053 -0.18 -0.00    -0.021 A 
DOCKED: ATOM     23  C   UNL d   1     -12.861   0.785  -4.374 -0.17 +0.00    +0.066 A 
DOCKED: ATOM     24  C   UNL d   1     -10.455   0.753  -7.175 -0.08 -0.00    +0.051 C 
DOCKED: ATOM     25  N   UNL d   1     -15.072  -0.432  -2.788 -0.10 -0.03    -0.248 N 
DOCKED: ATOM     26  N   UNL d   1     -16.360  -2.776  -3.939 -0.09 -0.05    -0.248 N 
DOCKED: ATOM     27  N   UNL d   1     -14.563  -2.682  -6.124 -0.09 -0.02    -0.248 N 
DOCKED: ATOM     28  N   UNL d   1     -13.261  -0.344  -4.995 -0.11 -0.02    -0.248 N 
DOCKED: ATOM     29 FE   UNL d   1     -14.798  -1.553  -4.473 -0.04 +0.00    +0.000 Fe
DOCKED: ATOM     30  O   UNL d   1     -14.361  -2.271  -3.163 -0.40 +0.00    +0.000 OA
DOCKED: ATOM     31  O   UNL d   1     -13.489  -2.424  -4.466 -0.42 +0.00    +0.000 OA
DOCKED: ENDROOT
DOCKED: BRANCH   6  32
DOCKED: ATOM     32  C   UNL d   1     -14.314   2.266  -0.343 -0.14 +0.01    +0.052 C 
DOCKED: BRANCH  32  33
DOCKED: ATOM     33  C   UNL d   1     -13.324   1.785   0.714 -0.28 +0.02    +0.115 C 
DOCKED: BRANCH  33  34
DOCKED: ATOM     34  C   UNL d   1     -13.760   2.141   2.114 -0.24 +0.03    +0.139 C 
DOCKED: ATOM     35  O   UNL d   1     -14.433   1.350   2.755 +0.03 -0.15    -0.650 OA
DOCKED: BRANCH  34  36
DOCKED: ATOM     36  O   UNL d   1     -13.447   3.330   2.667 +0.06 -0.21    -0.776 OA
DOCKED: ATOM     37  H   UNL d   1     -13.890   4.147   2.409 +0.05 +0.04    +0.167 HD
DOCKED: ENDBRANCH  34  36
DOCKED: ENDBRANCH  33  34
DOCKED: ENDBRANCH  32  33
DOCKED: ENDBRANCH   6  32
DOCKED: BRANCH  22  38
DOCKED: ATOM     38  C   UNL d   1     -10.971   2.562  -4.652 -0.19 +0.00    +0.052 C 
DOCKED: BRANCH  38  39
DOCKED: ATOM     39  C   UNL d   1      -9.468   2.314  -4.750 -0.31 -0.01    +0.115 C 
DOCKED: BRANCH  39  40
DOCKED: ATOM     40  C   UNL d   1      -8.744   3.430  -5.460 -0.26 +0.04    +0.139 C 
DOCKED: ATOM     41  O   UNL d   1      -8.170   4.290  -4.811 -0.39 -0.40    -0.650 OA
DOCKED: BRANCH  40  42
DOCKED: ATOM     42  O   UNL d   1      -8.675   3.470  -6.805 -0.41 -0.37    -0.776 OA
DOCKED: ATOM     43  H   UNL d   1      -8.047   2.926  -7.294 -0.15 +0.05    +0.167 HD
DOCKED: ENDBRANCH  40  42
DOCKED: ENDBRANCH  39  40
DOCKED: ENDBRANCH  38  39
DOCKED: ENDBRANCH  22  38
DOCKED: BRANCH  12  44
DOCKED: ATOM     44  C   UNL d   1     -19.099  -5.351  -4.358 -0.05 +0.00    +0.004 C 
DOCKED: ATOM     45  C   UNL d   1     -18.871  -6.652  -4.528 -0.07 +0.00    +0.012 C 
DOCKED: ENDBRANCH  12  44
DOCKED: BRANCH  17  46
DOCKED: ATOM     46  C   UNL d   1     -12.696  -3.674  -9.177 -0.18 +0.00    +0.004 C 
DOCKED: ATOM     47  C   UNL d   1     -11.360  -3.706  -9.101 -0.27 +0.00    +0.012 C 
DOCKED: ENDBRANCH  17  46
DOCKED: TORSDOF 10
DOCKED: TER
DOCKED: ENDMDL
________________________________________________________________________________


	BEGINNING GENETIC ALGORITHM DOCKING 61 of 100
Run: 61 Seed: 1985503411 1218210778 [ Run 61 of 100 GA/GALS ]
Beginning LAMARCKIAN GENETIC ALGORITHM (LGA), with a maximum of 25000000 energy evaluations.

Final-Value: -8.992


	FINAL GENETIC ALGORITHM DOCKED STATE
	_______________________________________________


Detailed state:  trans -3.151 -11.555 -13.771 quatxyzw -0.430961 -0.407023 -0.612732 0.522651 center 8.287 34.468 -0.670 ntor 10 -45.4219 -89.4352 88.7020 -56.1340 -143.3347 27.4473 -15.1973 8.3571 153.2290 37.1391
State:	 -3.151 -11.555 -13.771  -0.505 -0.477 -0.719 116.979    -45.42  -89.44   88.70  -56.13 -143.33   27.45  -15.20    8.36  153.23   37.14

DOCKED: MODEL       61
DOCKED: USER    Run = 61
DOCKED: USER    DPF = D:/Protein_go_brrr/autodock/final/mut_Y35F/heme_O2/dock.dpf
DOCKED: USER  
DOCKED: USER    Estimated Free Energy of Binding    =   -5.74 kcal/mol  [=(1)+(2)+(3)-(4)]
DOCKED: USER    Estimated Inhibition Constant, Ki   =   62.12 uM (micromolar)  [Temperature = 298.15 K]
DOCKED: USER    
DOCKED: USER    (1) Final Intermolecular Energy     =   -8.72 kcal/mol
DOCKED: USER        vdW + Hbond + desolv Energy     =   -7.93 kcal/mol
DOCKED: USER        Electrostatic Energy            =   -0.80 kcal/mol
DOCKED: USER    (2) Final Total Internal Energy     =   -0.27 kcal/mol
DOCKED: USER    (3) Torsional Free Energy           =   +2.98 kcal/mol
DOCKED: USER    (4) Unbound System's Energy  [=(2)] =   -0.27 kcal/mol
DOCKED: USER    
DOCKED: USER    
DOCKED: USER    NEWDPF move heme_O2_opt.pdbqt
DOCKED: USER    NEWDPF about 8.287000 34.468000 -0.670000
DOCKED: USER    NEWDPF tran0 -3.151297 -11.554672 -13.771301
DOCKED: USER    NEWDPF quaternion0 -0.430961 -0.407023 -0.612732 0.522651
DOCKED: USER    NEWDPF axisangle0 -0.505498 -0.477420 -0.718708 116.979474
DOCKED: USER    NEWDPF quat0 -0.505498 -0.477420 -0.718708 116.979474
DOCKED: USER    NEWDPF dihe0 -45.42 -89.44 88.70 -56.13 -143.33 27.45 -15.20 8.36 153.23 37.14 
DOCKED: USER  keepresnum = 1 
DOCKED: USER  
DOCKED: REMARK  10 active torsions:
DOCKED: REMARK  status: ('A' for Active; 'I' for Inactive)
DOCKED: REMARK    1  A    between atoms: C_6  and  C_10 
DOCKED: REMARK    2  A    between atoms: C_10  and  C_11 
DOCKED: REMARK    3  A    between atoms: C_11  and  C_12 
DOCKED: REMARK    4  A    between atoms: C_12  and  O_14 
DOCKED: REMARK    5  A    between atoms: C_17  and  C_20 
DOCKED: REMARK    6  A    between atoms: C_24  and  C_27 
DOCKED: REMARK    7  A    between atoms: C_31  and  C_34 
DOCKED: REMARK    8  A    between atoms: C_34  and  C_35 
DOCKED: REMARK    9  A    between atoms: C_35  and  C_36 
DOCKED: REMARK   10  A    between atoms: C_36  and  O_38 
DOCKED: USER                              x       y       z     vdW  Elec       q    Type
DOCKED: USER                           _______ _______ _______ _____ _____    ______ ____
DOCKED: ROOT
DOCKED: ATOM      1  C   UNL d   1      -3.935 -13.521 -13.630 -0.13 +0.00    +0.064 A 
DOCKED: ATOM      2  C   UNL d   1       0.293 -11.843 -14.996 -0.13 +0.00    +0.064 A 
DOCKED: ATOM      3  C   UNL d   1      -1.161  -7.321 -14.266 -0.13 +0.00    +0.064 C 
DOCKED: ATOM      4  C   UNL d   1      -5.355  -9.058 -12.404 -0.16 -0.00    +0.064 A 
DOCKED: ATOM      5  C   UNL d   1      -2.665 -13.434 -14.059 -0.14 +0.00    +0.066 A 
DOCKED: ATOM      6  C   UNL d   1      -1.880 -14.535 -14.410 -0.14 -0.00    -0.021 A 
DOCKED: ATOM      7  C   UNL d   1      -0.642 -14.054 -14.765 -0.10 -0.00    -0.025 A 
DOCKED: ATOM      8  C   UNL d   1      -0.720 -12.668 -14.666 -0.12 -0.00    +0.066 A 
DOCKED: ATOM      9  C   UNL d   1       0.545 -14.913 -15.144 -0.07 +0.00    +0.051 C 
DOCKED: ATOM     10  C   UNL d   1       0.264 -10.381 -14.936 -0.14 +0.00    +0.066 A 
DOCKED: ATOM     11  C   UNL d   1       1.284  -9.569 -15.444 -0.12 -0.00    -0.021 A 
DOCKED: ATOM     12  C   UNL d   1       0.875  -8.261 -15.259 -0.13 +0.00    +0.000 A 
DOCKED: ATOM     13  C   UNL d   1      -0.395  -8.352 -14.623 -0.13 +0.00    +0.070 A 
DOCKED: ATOM     14  C   UNL d   1       2.582 -10.022 -16.102 -0.11 +0.00    +0.052 C 
DOCKED: ATOM     15  C   UNL d   1      -2.435  -7.370 -13.590 -0.14 +0.00    +0.066 A 
DOCKED: ATOM     16  C   UNL d   1      -3.111  -6.255 -13.096 -0.17 -0.00    -0.021 A 
DOCKED: ATOM     17  C   UNL d   1      -4.309  -6.725 -12.560 -0.17 -0.00    +0.000 A 
DOCKED: ATOM     18  C   UNL d   1      -4.275  -8.111 -12.771 -0.10 -0.00    +0.070 A 
DOCKED: ATOM     19  C   UNL d   1      -2.535  -4.862 -13.130 -0.14 +0.00    +0.052 C 
DOCKED: ATOM     20  C   UNL d   1      -5.336 -10.396 -12.553 -0.20 -0.01    +0.066 A 
DOCKED: ATOM     21  C   UNL d   1      -6.391 -11.235 -12.204 -0.28 +0.00    -0.025 A 
DOCKED: ATOM     22  C   UNL d   1      -6.015 -12.508 -12.571 -0.27 +0.00    -0.021 A 
DOCKED: ATOM     23  C   UNL d   1      -4.731 -12.400 -13.116 -0.21 -0.01    +0.066 A 
DOCKED: ATOM     24  C   UNL d   1      -7.690 -10.843 -11.550 -0.27 -0.01    +0.051 C 
DOCKED: ATOM     25  N   UNL d   1      -1.946 -12.290 -14.169 -0.10 +0.01    -0.248 N 
DOCKED: ATOM     26  N   UNL d   1      -0.757  -9.645 -14.426 -0.11 -0.00    -0.248 N 
DOCKED: ATOM     27  N   UNL d   1      -3.098  -8.493 -13.329 -0.09 +0.00    -0.248 N 
DOCKED: ATOM     28  N   UNL d   1      -4.305 -11.122 -13.061 -0.13 +0.02    -0.248 N 
DOCKED: ATOM     29 FE   UNL d   1      -2.545 -10.386 -13.738 -0.04 -0.00    +0.000 Fe
DOCKED: ATOM     30  O   UNL d   1      -1.447 -10.932 -12.778 -0.35 -0.00    +0.000 OA
DOCKED: ATOM     31  O   UNL d   1      -2.630 -10.066 -12.200 -0.06 -0.00    +0.000 OA
DOCKED: ENDROOT
DOCKED: BRANCH   6  32
DOCKED: ATOM     32  C   UNL d   1      -2.232 -15.996 -14.287 -0.21 +0.01    +0.052 C 
DOCKED: BRANCH  32  33
DOCKED: ATOM     33  C   UNL d   1      -1.232 -16.776 -13.439 -0.19 +0.03    +0.115 C 
DOCKED: BRANCH  33  34
DOCKED: ATOM     34  C   UNL d   1      -1.785 -18.100 -12.972 -0.13 +0.06    +0.139 C 
DOCKED: ATOM     35  O   UNL d   1      -2.036 -18.971 -13.789 -0.07 -0.38    -0.650 OA
DOCKED: BRANCH  34  36
DOCKED: ATOM     36  O   UNL d   1      -2.036 -18.336 -11.667 -0.59 -0.36    -0.776 OA
DOCKED: ATOM     37  H   UNL d   1      -1.410 -18.095 -10.975 +0.04 +0.03    +0.167 HD
DOCKED: ENDBRANCH  34  36
DOCKED: ENDBRANCH  33  34
DOCKED: ENDBRANCH  32  33
DOCKED: ENDBRANCH   6  32
DOCKED: BRANCH  22  38
DOCKED: ATOM     38  C   UNL d   1      -6.822 -13.761 -12.349 -0.36 -0.01    +0.052 C 
DOCKED: BRANCH  38  39
DOCKED: ATOM     39  C   UNL d   1      -6.769 -14.707 -13.547 -0.24 +0.01    +0.115 C 
DOCKED: BRANCH  39  40
DOCKED: ATOM     40  C   UNL d   1      -7.710 -15.876 -13.399 -0.20 +0.02    +0.139 C 
DOCKED: ATOM     41  O   UNL d   1      -7.885 -16.636 -14.339 -0.03 -0.18    -0.650 OA
DOCKED: BRANCH  40  42
DOCKED: ATOM     42  O   UNL d   1      -8.327 -16.130 -12.229 -0.00 -0.06    -0.776 OA
DOCKED: ATOM     43  H   UNL d   1      -7.908 -16.664 -11.543 -0.35 +0.00    +0.167 HD
DOCKED: ENDBRANCH  40  42
DOCKED: ENDBRANCH  39  40
DOCKED: ENDBRANCH  38  39
DOCKED: ENDBRANCH  22  38
DOCKED: BRANCH  12  44
DOCKED: ATOM     44  C   UNL d   1       1.722  -7.085 -15.695 -0.10 +0.00    +0.004 C 
DOCKED: ATOM     45  C   UNL d   1       2.572  -6.370 -14.959 -0.18 +0.00    +0.012 C 
DOCKED: ENDBRANCH  12  44
DOCKED: BRANCH  17  46
DOCKED: ATOM     46  C   UNL d   1      -5.418  -6.007 -11.837 -0.28 -0.00    +0.004 C 
DOCKED: ATOM     47  C   UNL d   1      -5.360  -5.357 -10.668 -0.44 -0.00    +0.012 C 
DOCKED: ENDBRANCH  17  46
DOCKED: TORSDOF 10
DOCKED: TER
DOCKED: ENDMDL
________________________________________________________________________________


	BEGINNING GENETIC ALGORITHM DOCKING 62 of 100
Run: 62 Seed: 115289935 362507142 [ Run 62 of 100 GA/GALS ]
Beginning LAMARCKIAN GENETIC ALGORITHM (LGA), with a maximum of 25000000 energy evaluations.

Final-Value: -8.847


	FINAL GENETIC ALGORITHM DOCKED STATE
	_______________________________________________


Detailed state:  trans -14.756 -3.121 -6.508 quatxyzw 0.702702 0.290316 0.482557 -0.434815 center 8.287 34.468 -0.670 ntor 10 -121.8022 56.7069 25.6100 -85.5085 16.3329 -162.1943 12.8627 -70.6709 -168.5573 170.1014
State:	-14.756  -3.121  -6.508   0.780  0.322  0.536 -128.453   -121.80   56.71   25.61  -85.51   16.33 -162.19   12.86  -70.67 -168.56  170.10

DOCKED: MODEL       62
DOCKED: USER    Run = 62
DOCKED: USER    DPF = D:/Protein_go_brrr/autodock/final/mut_Y35F/heme_O2/dock.dpf
DOCKED: USER  
DOCKED: USER    Estimated Free Energy of Binding    =   -5.22 kcal/mol  [=(1)+(2)+(3)-(4)]
DOCKED: USER    Estimated Inhibition Constant, Ki   =  149.28 uM (micromolar)  [Temperature = 298.15 K]
DOCKED: USER    
DOCKED: USER    (1) Final Intermolecular Energy     =   -8.20 kcal/mol
DOCKED: USER        vdW + Hbond + desolv Energy     =   -7.40 kcal/mol
DOCKED: USER        Electrostatic Energy            =   -0.81 kcal/mol
DOCKED: USER    (2) Final Total Internal Energy     =   -0.64 kcal/mol
DOCKED: USER    (3) Torsional Free Energy           =   +2.98 kcal/mol
DOCKED: USER    (4) Unbound System's Energy  [=(2)] =   -0.64 kcal/mol
DOCKED: USER    
DOCKED: USER    
DOCKED: USER    NEWDPF move heme_O2_opt.pdbqt
DOCKED: USER    NEWDPF about 8.287000 34.468000 -0.670000
DOCKED: USER    NEWDPF tran0 -14.755798 -3.121047 -6.508492
DOCKED: USER    NEWDPF quaternion0 0.702702 0.290316 0.482557 -0.434815
DOCKED: USER    NEWDPF axisangle0 0.780330 0.322387 0.535866 -128.452901
DOCKED: USER    NEWDPF quat0 0.780330 0.322387 0.535866 -128.452901
DOCKED: USER    NEWDPF dihe0 -121.80 56.71 25.61 -85.51 16.33 -162.19 12.86 -70.67 -168.56 170.10 
DOCKED: USER  keepresnum = 1 
DOCKED: USER  
DOCKED: REMARK  10 active torsions:
DOCKED: REMARK  status: ('A' for Active; 'I' for Inactive)
DOCKED: REMARK    1  A    between atoms: C_6  and  C_10 
DOCKED: REMARK    2  A    between atoms: C_10  and  C_11 
DOCKED: REMARK    3  A    between atoms: C_11  and  C_12 
DOCKED: REMARK    4  A    between atoms: C_12  and  O_14 
DOCKED: REMARK    5  A    between atoms: C_17  and  C_20 
DOCKED: REMARK    6  A    between atoms: C_24  and  C_27 
DOCKED: REMARK    7  A    between atoms: C_31  and  C_34 
DOCKED: REMARK    8  A    between atoms: C_34  and  C_35 
DOCKED: REMARK    9  A    between atoms: C_35  and  C_36 
DOCKED: REMARK   10  A    between atoms: C_36  and  O_38 
DOCKED: USER                              x       y       z     vdW  Elec       q    Type
DOCKED: USER                           _______ _______ _______ _____ _____    ______ ____
DOCKED: ROOT
DOCKED: ATOM      1  C   UNL d   1     -16.191  -4.677  -6.643 -0.05 +0.00    +0.064 A 
DOCKED: ATOM      2  C   UNL d   1     -12.280  -3.695  -9.152 -0.17 +0.00    +0.064 A 
DOCKED: ATOM      3  C   UNL d   1     -11.462   0.237  -6.513 -0.16 +0.00    +0.064 C 
DOCKED: ATOM      4  C   UNL d   1     -15.217  -1.025  -3.618 -0.15 +0.01    +0.064 A 
DOCKED: ATOM      5  C   UNL d   1     -15.193  -4.732  -7.540 -0.10 +0.00    +0.066 A 
DOCKED: ATOM      6  C   UNL d   1     -15.074  -5.721  -8.520 -0.15 -0.00    -0.021 A 
DOCKED: ATOM      7  C   UNL d   1     -13.919  -5.463  -9.219 -0.18 -0.00    -0.025 A 
DOCKED: ATOM      8  C   UNL d   1     -13.389  -4.294  -8.678 -0.16 +0.00    +0.066 A 
DOCKED: ATOM      9  C   UNL d   1     -13.364  -6.332 -10.326 -0.23 +0.00    +0.051 C 
DOCKED: ATOM     10  C   UNL d   1     -11.689  -2.457  -8.642 -0.17 +0.01    +0.066 A 
DOCKED: ATOM     11  C   UNL d   1     -10.633  -1.790  -9.273 -0.18 -0.00    -0.021 A 
DOCKED: ATOM     12  C   UNL d   1     -10.395  -0.645  -8.537 -0.05 +0.00    +0.000 A 
DOCKED: ATOM     13  C   UNL d   1     -11.332  -0.684  -7.467 -0.11 +0.01    +0.070 A 
DOCKED: ATOM     14  C   UNL d   1      -9.901  -2.215 -10.541 -0.14 +0.01    +0.052 C 
DOCKED: ATOM     15  C   UNL d   1     -12.373   0.216  -5.394 -0.16 +0.00    +0.066 A 
DOCKED: ATOM     16  C   UNL d   1     -12.349   1.127  -4.338 -0.20 -0.00    -0.021 A 
DOCKED: ATOM     17  C   UNL d   1     -13.411   0.786  -3.499 -0.20 +0.00    +0.000 A 
DOCKED: ATOM     18  C   UNL d   1     -14.012  -0.320  -4.116 -0.16 +0.01    +0.070 A 
DOCKED: ATOM     19  C   UNL d   1     -11.294   2.195  -4.196 -0.22 +0.00    +0.052 C 
DOCKED: ATOM     20  C   UNL d   1     -15.793  -2.115  -4.161 -0.14 +0.01    +0.066 A 
DOCKED: ATOM     21  C   UNL d   1     -16.939  -2.724  -3.657 -0.12 -0.01    -0.025 A 
DOCKED: ATOM     22  C   UNL d   1     -17.247  -3.750  -4.522 -0.10 -0.00    -0.021 A 
DOCKED: ATOM     23  C   UNL d   1     -16.263  -3.740  -5.516 -0.10 +0.01    +0.066 A 
DOCKED: ATOM     24  C   UNL d   1     -17.699  -2.349  -2.411 -0.04 +0.02    +0.051 C 
DOCKED: ATOM     25  N   UNL d   1     -14.139  -3.881  -7.602 -0.09 -0.02    -0.248 N 
DOCKED: ATOM     26  N   UNL d   1     -12.112  -1.792  -7.536 -0.11 -0.03    -0.248 N 
DOCKED: ATOM     27  N   UNL d   1     -13.324  -0.698  -5.224 -0.11 -0.02    -0.248 N 
DOCKED: ATOM     28  N   UNL d   1     -15.356  -2.773  -5.268 -0.09 -0.03    -0.248 N 
DOCKED: ATOM     29 FE   UNL d   1     -13.746  -2.284  -6.392 -0.04 +0.00    +0.000 Fe
DOCKED: ATOM     30  O   UNL d   1     -12.734  -3.456  -6.234 -0.42 +0.00    +0.000 OA
DOCKED: ATOM     31  O   UNL d   1     -13.222  -2.670  -4.960 -0.34 +0.00    +0.000 OA
DOCKED: ENDROOT
DOCKED: BRANCH   6  32
DOCKED: ATOM     32  C   UNL d   1     -15.937  -6.943  -8.707 -0.19 +0.00    +0.052 C 
DOCKED: BRANCH  32  33
DOCKED: ATOM     33  C   UNL d   1     -15.500  -8.116  -7.834 -0.25 -0.00    +0.115 C 
DOCKED: BRANCH  33  34
DOCKED: ATOM     34  C   UNL d   1     -16.195  -9.401  -8.208 -0.27 +0.01    +0.139 C 
DOCKED: ATOM     35  O   UNL d   1     -16.654 -10.116  -7.332 -0.08 -0.04    -0.650 OA
DOCKED: BRANCH  34  36
DOCKED: ATOM     36  O   UNL d   1     -16.298  -9.797  -9.494 -0.00 -0.07    -0.776 OA
DOCKED: ATOM     37  H   UNL d   1     -17.152  -9.954  -9.913 +0.03 +0.01    +0.167 HD
DOCKED: ENDBRANCH  34  36
DOCKED: ENDBRANCH  33  34
DOCKED: ENDBRANCH  32  33
DOCKED: ENDBRANCH   6  32
DOCKED: BRANCH  22  38
DOCKED: ATOM     38  C   UNL d   1     -18.386  -4.723  -4.360 -0.08 +0.01    +0.052 C 
DOCKED: BRANCH  38  39
DOCKED: ATOM     39  C   UNL d   1     -17.998  -5.940  -3.524 -0.15 +0.01    +0.115 C 
DOCKED: BRANCH  39  40
DOCKED: ATOM     40  C   UNL d   1     -18.637  -5.928  -2.157 -0.02 +0.07    +0.139 C 
DOCKED: ATOM     41  O   UNL d   1     -19.097  -4.888  -1.713 -0.30 -0.57    -0.650 OA
DOCKED: BRANCH  40  42
DOCKED: ATOM     42  O   UNL d   1     -18.758  -7.059  -1.435 -0.24 -0.07    -0.776 OA
DOCKED: ATOM     43  H   UNL d   1     -17.986  -7.577  -1.177 -0.29 -0.16    +0.167 HD
DOCKED: ENDBRANCH  40  42
DOCKED: ENDBRANCH  39  40
DOCKED: ENDBRANCH  38  39
DOCKED: ENDBRANCH  22  38
DOCKED: BRANCH  12  44
DOCKED: ATOM     44  C   UNL d   1      -9.317   0.347  -8.920 -0.17 +0.00    +0.004 C 
DOCKED: ATOM     45  C   UNL d   1      -8.720   1.250  -8.142 -0.23 +0.00    +0.012 C 
DOCKED: ENDBRANCH  12  44
DOCKED: BRANCH  17  46
DOCKED: ATOM     46  C   UNL d   1     -13.853   1.363  -2.181 -0.20 +0.00    +0.004 C 
DOCKED: ATOM     47  C   UNL d   1     -13.506   0.972  -0.948 -0.32 +0.00    +0.012 C 
DOCKED: ENDBRANCH  17  46
DOCKED: TORSDOF 10
DOCKED: TER
DOCKED: ENDMDL
________________________________________________________________________________


	BEGINNING GENETIC ALGORITHM DOCKING 63 of 100
Run: 63 Seed: 1566382794 754060734 [ Run 63 of 100 GA/GALS ]
Beginning LAMARCKIAN GENETIC ALGORITHM (LGA), with a maximum of 25000000 energy evaluations.

Final-Value: -11.298


	FINAL GENETIC ALGORITHM DOCKED STATE
	_______________________________________________


Detailed state:  trans 11.032 11.526 7.325 quatxyzw -0.667415 -0.607541 -0.368965 0.222072 center 8.287 34.468 -0.670 ntor 10 130.1860 -36.9776 -104.5093 74.0852 -164.8975 -175.8373 -47.7247 21.0811 -178.4709 144.1000
State:	 11.032  11.526   7.325  -0.685 -0.623 -0.378 154.338    130.19  -36.98 -104.51   74.09 -164.90 -175.84  -47.72   21.08 -178.47  144.10

DOCKED: MODEL       63
DOCKED: USER    Run = 63
DOCKED: USER    DPF = D:/Protein_go_brrr/autodock/final/mut_Y35F/heme_O2/dock.dpf
DOCKED: USER  
DOCKED: USER    Estimated Free Energy of Binding    =   -6.32 kcal/mol  [=(1)+(2)+(3)-(4)]
DOCKED: USER    Estimated Inhibition Constant, Ki   =   23.47 uM (micromolar)  [Temperature = 298.15 K]
DOCKED: USER    
DOCKED: USER    (1) Final Intermolecular Energy     =   -9.30 kcal/mol
DOCKED: USER        vdW + Hbond + desolv Energy     =   -6.63 kcal/mol
DOCKED: USER        Electrostatic Energy            =   -2.67 kcal/mol
DOCKED: USER    (2) Final Total Internal Energy     =   -2.00 kcal/mol
DOCKED: USER    (3) Torsional Free Energy           =   +2.98 kcal/mol
DOCKED: USER    (4) Unbound System's Energy  [=(2)] =   -2.00 kcal/mol
DOCKED: USER    
DOCKED: USER    
DOCKED: USER    NEWDPF move heme_O2_opt.pdbqt
DOCKED: USER    NEWDPF about 8.287000 34.468000 -0.670000
DOCKED: USER    NEWDPF tran0 11.032121 11.525631 7.324729
DOCKED: USER    NEWDPF quaternion0 -0.667415 -0.607541 -0.368965 0.222072
DOCKED: USER    NEWDPF axisangle0 -0.684507 -0.623100 -0.378414 154.338430
DOCKED: USER    NEWDPF quat0 -0.684507 -0.623100 -0.378414 154.338430
DOCKED: USER    NEWDPF dihe0 130.19 -36.98 -104.51 74.09 -164.90 -175.84 -47.72 21.08 -178.47 144.10 
DOCKED: USER  keepresnum = 1 
DOCKED: USER  
DOCKED: REMARK  10 active torsions:
DOCKED: REMARK  status: ('A' for Active; 'I' for Inactive)
DOCKED: REMARK    1  A    between atoms: C_6  and  C_10 
DOCKED: REMARK    2  A    between atoms: C_10  and  C_11 
DOCKED: REMARK    3  A    between atoms: C_11  and  C_12 
DOCKED: REMARK    4  A    between atoms: C_12  and  O_14 
DOCKED: REMARK    5  A    between atoms: C_17  and  C_20 
DOCKED: REMARK    6  A    between atoms: C_24  and  C_27 
DOCKED: REMARK    7  A    between atoms: C_31  and  C_34 
DOCKED: REMARK    8  A    between atoms: C_34  and  C_35 
DOCKED: REMARK    9  A    between atoms: C_35  and  C_36 
DOCKED: REMARK   10  A    between atoms: C_36  and  O_38 
DOCKED: USER                              x       y       z     vdW  Elec       q    Type
DOCKED: USER                           _______ _______ _______ _____ _____    ______ ____
DOCKED: ROOT
DOCKED: ATOM      1  C   UNL d   1      10.831   9.483   7.860 -0.15 +0.02    +0.064 A 
DOCKED: ATOM      2  C   UNL d   1      11.880  11.636   3.759 -0.19 -0.01    +0.064 A 
DOCKED: ATOM      3  C   UNL d   1      11.469  15.960   5.817 -0.16 -0.01    +0.064 C 
DOCKED: ATOM      4  C   UNL d   1      10.858  13.747  10.152 -0.23 +0.02    +0.064 A 
DOCKED: ATOM      5  C   UNL d   1      11.152   9.716   6.577 -0.13 +0.01    +0.066 A 
DOCKED: ATOM      6  C   UNL d   1      11.339   8.712   5.622 -0.18 -0.00    -0.021 A 
DOCKED: ATOM      7  C   UNL d   1      11.686   9.333   4.445 -0.24 -0.00    -0.025 A 
DOCKED: ATOM      8  C   UNL d   1      11.653  10.701   4.700 -0.18 +0.00    +0.066 A 
DOCKED: ATOM      9  C   UNL d   1      12.053   8.616   3.164 -0.44 -0.00    +0.051 C 
DOCKED: ATOM     10  C   UNL d   1      11.838  13.085   3.961 -0.17 -0.01    +0.066 A 
DOCKED: ATOM     11  C   UNL d   1      11.920  14.011   2.916 -0.22 +0.00    -0.021 A 
DOCKED: ATOM     12  C   UNL d   1      11.785  15.263   3.487 -0.13 -0.00    +0.000 A 
DOCKED: ATOM     13  C   UNL d   1      11.637  15.025   4.881 -0.12 -0.01    +0.070 A 
DOCKED: ATOM     14  C   UNL d   1      12.092  13.713   1.431 -0.21 -0.02    +0.052 C 
DOCKED: ATOM     15  C   UNL d   1      11.351  15.762   7.241 -0.18 -0.01    +0.066 A 
DOCKED: ATOM     16  C   UNL d   1      11.341  16.790   8.184 -0.17 +0.00    -0.021 A 
DOCKED: ATOM     17  C   UNL d   1      11.169  16.183   9.428 -0.21 +0.00    +0.000 A 
DOCKED: ATOM     18  C   UNL d   1      11.083  14.812   9.147 -0.22 +0.01    +0.070 A 
DOCKED: ATOM     19  C   UNL d   1      11.551  18.239   7.823 -0.10 -0.00    +0.052 C 
DOCKED: ATOM     20  C   UNL d   1      10.814  12.420   9.923 -0.22 +0.02    +0.066 A 
DOCKED: ATOM     21  C   UNL d   1      10.581  11.465  10.909 -0.17 -0.01    -0.025 A 
DOCKED: ATOM     22  C   UNL d   1      10.543  10.247  10.269 -0.15 -0.01    -0.021 A 
DOCKED: ATOM     23  C   UNL d   1      10.773  10.502   8.914 -0.17 +0.02    +0.066 A 
DOCKED: ATOM     24  C   UNL d   1      10.407  11.703  12.386 -0.14 +0.04    +0.051 C 
DOCKED: ATOM     25  N   UNL d   1      11.388  10.934   6.030 -0.03 -0.02    -0.248 N 
DOCKED: ATOM     26  N   UNL d   1      11.675  13.698   5.162 -0.02 +0.01    -0.248 N 
DOCKED: ATOM     27  N   UNL d   1      11.271  14.569   7.824 -0.12 -0.01    -0.248 N 
DOCKED: ATOM     28  N   UNL d   1      10.982  11.820   8.715 -0.05 -0.04    -0.248 N 
DOCKED: ATOM     29 FE   UNL d   1      11.326  12.754   6.953 -0.04 +0.00    +0.000 Fe
DOCKED: ATOM     30  O   UNL d   1      12.754  12.325   6.505 -0.10 +0.00    +0.000 OA
DOCKED: ATOM     31  O   UNL d   1      12.555  13.048   7.890 -0.11 +0.00    +0.000 OA
DOCKED: ENDROOT
DOCKED: BRANCH   6  32
DOCKED: ATOM     32  C   UNL d   1      11.330   7.221   5.837 -0.14 +0.02    +0.052 C 
DOCKED: BRANCH  32  33
DOCKED: ATOM     33  C   UNL d   1      12.725   6.645   6.060 -0.17 +0.05    +0.115 C 
DOCKED: BRANCH  33  34
DOCKED: ATOM     34  C   UNL d   1      12.794   5.759   7.279 -0.15 +0.10    +0.139 C 
DOCKED: ATOM     35  O   UNL d   1      11.907   4.945   7.484 -0.29 -0.96    -0.650 OA
DOCKED: BRANCH  34  36
DOCKED: ATOM     36  O   UNL d   1      13.803   5.863   8.168 +0.04 -0.45    -0.776 OA
DOCKED: ATOM     37  H   UNL d   1      13.643   5.931   9.117 +0.02 +0.11    +0.167 HD
DOCKED: ENDBRANCH  34  36
DOCKED: ENDBRANCH  33  34
DOCKED: ENDBRANCH  32  33
DOCKED: ENDBRANCH   6  32
DOCKED: BRANCH  22  38
DOCKED: ATOM     38  C   UNL d   1      10.359   8.909  10.939 -0.11 +0.02    +0.052 C 
DOCKED: BRANCH  38  39
DOCKED: ATOM     39  C   UNL d   1      11.599   8.025  10.822 -0.07 +0.06    +0.115 C 
DOCKED: BRANCH  39  40
DOCKED: ATOM     40  C   UNL d   1      11.289   6.566  11.043 -0.04 +0.15    +0.139 C 
DOCKED: ATOM     41  O   UNL d   1      10.386   6.245  11.798 -0.25 -0.70    -0.650 OA
DOCKED: BRANCH  40  42
DOCKED: ATOM     42  O   UNL d   1      11.960   5.604  10.379 +0.15 -1.31    -0.776 OA
DOCKED: ATOM     43  H   UNL d   1      12.265   5.735   9.473 +0.01 +0.25    +0.167 HD
DOCKED: ENDBRANCH  40  42
DOCKED: ENDBRANCH  39  40
DOCKED: ENDBRANCH  38  39
DOCKED: ENDBRANCH  22  38
DOCKED: BRANCH  12  44
DOCKED: ATOM     44  C   UNL d   1      11.814  16.532   2.660 -0.12 -0.00    +0.004 C 
DOCKED: ATOM     45  C   UNL d   1      10.886  16.979   1.814 -0.17 -0.00    +0.012 C 
DOCKED: ENDBRANCH  12  44
DOCKED: BRANCH  17  46
DOCKED: ATOM     46  C   UNL d   1      11.139  16.765  10.816 -0.19 +0.00    +0.004 C 
DOCKED: ATOM     47  C   UNL d   1      10.220  17.577  11.353 -0.20 +0.00    +0.012 C 
DOCKED: ENDBRANCH  17  46
DOCKED: TORSDOF 10
DOCKED: TER
DOCKED: ENDMDL
________________________________________________________________________________


	BEGINNING GENETIC ALGORITHM DOCKING 64 of 100
Run: 64 Seed: 969423394 743112258 [ Run 64 of 100 GA/GALS ]
Beginning LAMARCKIAN GENETIC ALGORITHM (LGA), with a maximum of 25000000 energy evaluations.

Final-Value: -10.727


	FINAL GENETIC ALGORITHM DOCKED STATE
	_______________________________________________


Detailed state:  trans -13.576 7.980 14.507 quatxyzw -0.811218 -0.457877 -0.058241 -0.359001 center 8.287 34.468 -0.670 ntor 10 -5.7739 59.5106 42.6642 -104.2005 104.7212 38.5763 151.4158 86.4405 -141.9222 -168.6543
State:	-13.576   7.980  14.507  -0.869 -0.491 -0.062 -137.922     -5.77   59.51   42.66 -104.20  104.72   38.58  151.42   86.44 -141.92 -168.65

DOCKED: MODEL       64
DOCKED: USER    Run = 64
DOCKED: USER    DPF = D:/Protein_go_brrr/autodock/final/mut_Y35F/heme_O2/dock.dpf
DOCKED: USER  
DOCKED: USER    Estimated Free Energy of Binding    =   -5.98 kcal/mol  [=(1)+(2)+(3)-(4)]
DOCKED: USER    Estimated Inhibition Constant, Ki   =   41.53 uM (micromolar)  [Temperature = 298.15 K]
DOCKED: USER    
DOCKED: USER    (1) Final Intermolecular Energy     =   -8.96 kcal/mol
DOCKED: USER        vdW + Hbond + desolv Energy     =   -5.48 kcal/mol
DOCKED: USER        Electrostatic Energy            =   -3.48 kcal/mol
DOCKED: USER    (2) Final Total Internal Energy     =   -1.77 kcal/mol
DOCKED: USER    (3) Torsional Free Energy           =   +2.98 kcal/mol
DOCKED: USER    (4) Unbound System's Energy  [=(2)] =   -1.77 kcal/mol
DOCKED: USER    
DOCKED: USER    
DOCKED: USER    NEWDPF move heme_O2_opt.pdbqt
DOCKED: USER    NEWDPF about 8.287000 34.468000 -0.670000
DOCKED: USER    NEWDPF tran0 -13.575545 7.980461 14.507110
DOCKED: USER    NEWDPF quaternion0 -0.811218 -0.457877 -0.058241 -0.359001
DOCKED: USER    NEWDPF axisangle0 -0.869159 -0.490581 -0.062401 -137.922304
DOCKED: USER    NEWDPF quat0 -0.869159 -0.490581 -0.062401 -137.922304
DOCKED: USER    NEWDPF dihe0 -5.77 59.51 42.66 -104.20 104.72 38.58 151.42 86.44 -141.92 -168.65 
DOCKED: USER  keepresnum = 1 
DOCKED: USER  
DOCKED: REMARK  10 active torsions:
DOCKED: REMARK  status: ('A' for Active; 'I' for Inactive)
DOCKED: REMARK    1  A    between atoms: C_6  and  C_10 
DOCKED: REMARK    2  A    between atoms: C_10  and  C_11 
DOCKED: REMARK    3  A    between atoms: C_11  and  C_12 
DOCKED: REMARK    4  A    between atoms: C_12  and  O_14 
DOCKED: REMARK    5  A    between atoms: C_17  and  C_20 
DOCKED: REMARK    6  A    between atoms: C_24  and  C_27 
DOCKED: REMARK    7  A    between atoms: C_31  and  C_34 
DOCKED: REMARK    8  A    between atoms: C_34  and  C_35 
DOCKED: REMARK    9  A    between atoms: C_35  and  C_36 
DOCKED: REMARK   10  A    between atoms: C_36  and  O_38 
DOCKED: USER                              x       y       z     vdW  Elec       q    Type
DOCKED: USER                           _______ _______ _______ _____ _____    ______ ____
DOCKED: ROOT
DOCKED: ATOM      1  C   UNL d   1     -13.989   5.966  13.985 -0.11 +0.04    +0.064 A 
DOCKED: ATOM      2  C   UNL d   1     -16.323  10.028  13.199 -0.01 +0.03    +0.064 A 
DOCKED: ATOM      3  C   UNL d   1     -12.975  12.520  15.582 -0.04 +0.01    +0.064 C 
DOCKED: ATOM      4  C   UNL d   1     -10.322   8.414  15.986 -0.14 +0.02    +0.064 A 
DOCKED: ATOM      5  C   UNL d   1     -14.896   6.868  13.576 -0.08 +0.05    +0.066 A 
DOCKED: ATOM      6  C   UNL d   1     -16.053   6.545  12.861 -0.05 -0.01    -0.021 A 
DOCKED: ATOM      7  C   UNL d   1     -16.708   7.725  12.596 -0.02 -0.01    -0.025 A 
DOCKED: ATOM      8  C   UNL d   1     -15.957   8.731  13.197 -0.03 +0.04    +0.066 A 
DOCKED: ATOM      9  C   UNL d   1     -17.974   7.847  11.776 -0.00 +0.02    +0.051 C 
DOCKED: ATOM     10  C   UNL d   1     -15.589  11.124  13.832 -0.01 +0.02    +0.066 A 
DOCKED: ATOM     11  C   UNL d   1     -16.095  12.424  13.946 +0.00 -0.00    -0.021 A 
DOCKED: ATOM     12  C   UNL d   1     -15.152  13.154  14.646 +0.00 +0.00    +0.000 A 
DOCKED: ATOM     13  C   UNL d   1     -14.095  12.240  14.915 -0.02 +0.02    +0.070 A 
DOCKED: ATOM     14  C   UNL d   1     -17.434  12.941  13.433 +0.01 +0.01    +0.052 C 
DOCKED: ATOM     15  C   UNL d   1     -11.867  11.634  15.845 -0.06 +0.01    +0.066 A 
DOCKED: ATOM     16  C   UNL d   1     -10.653  12.031  16.405 -0.06 -0.00    -0.021 A 
DOCKED: ATOM     17  C   UNL d   1      -9.880  10.877  16.529 -0.09 +0.00    +0.000 A 
DOCKED: ATOM     18  C   UNL d   1     -10.692   9.848  16.030 -0.10 +0.02    +0.070 A 
DOCKED: ATOM     19  C   UNL d   1     -10.322  13.469  16.717 -0.04 +0.00    +0.052 C 
DOCKED: ATOM     20  C   UNL d   1     -11.058   7.408  15.475 -0.15 +0.03    +0.066 A 
DOCKED: ATOM     21  C   UNL d   1     -10.665   6.073  15.477 -0.18 -0.01    -0.025 A 
DOCKED: ATOM     22  C   UNL d   1     -11.709   5.358  14.936 -0.20 -0.01    -0.021 A 
DOCKED: ATOM     23  C   UNL d   1     -12.698   6.289  14.605 -0.12 +0.04    +0.066 A 
DOCKED: ATOM     24  C   UNL d   1      -9.356   5.509  15.968 -0.19 +0.01    +0.051 C 
DOCKED: ATOM     25  N   UNL d   1     -14.807   8.210  13.744 -0.05 -0.21    -0.248 N 
DOCKED: ATOM     26  N   UNL d   1     -14.367  11.009  14.412 -0.02 -0.11    -0.248 N 
DOCKED: ATOM     27  N   UNL d   1     -11.864  10.337  15.550 -0.07 -0.09    -0.248 N 
DOCKED: ATOM     28  N   UNL d   1     -12.280   7.539  14.893 -0.09 -0.16    -0.248 N 
DOCKED: ATOM     29 FE   UNL d   1     -13.314   9.263  14.655 -0.02 +0.00    +0.000 Fe
DOCKED: ATOM     30  O   UNL d   1     -13.407   9.506  13.121 -0.30 +0.00    +0.000 OA
DOCKED: ATOM     31  O   UNL d   1     -11.995   9.383  13.807 -0.42 +0.00    +0.000 OA
DOCKED: ENDROOT
DOCKED: BRANCH   6  32
DOCKED: ATOM     32  C   UNL d   1     -16.462   5.196  12.328 -0.10 +0.03    +0.052 C 
DOCKED: BRANCH  32  33
DOCKED: ATOM     33  C   UNL d   1     -15.431   4.599  11.375 -0.14 +0.12    +0.115 C 
DOCKED: BRANCH  33  34
DOCKED: ATOM     34  C   UNL d   1     -14.675   5.656  10.610 -0.18 +0.21    +0.139 C 
DOCKED: ATOM     35  O   UNL d   1     -15.284   6.578  10.091 -0.01 -0.77    -0.650 OA
DOCKED: BRANCH  34  36
DOCKED: ATOM     36  O   UNL d   1     -13.335   5.593  10.460 -0.03 -1.65    -0.776 OA
DOCKED: ATOM     37  H   UNL d   1     -12.804   4.918  10.898 +0.06 +0.38    +0.167 HD
DOCKED: ENDBRANCH  34  36
DOCKED: ENDBRANCH  33  34
DOCKED: ENDBRANCH  32  33
DOCKED: ENDBRANCH   6  32
DOCKED: BRANCH  22  38
DOCKED: ATOM     38  C   UNL d   1     -11.722   3.871  14.693 -0.34 +0.02    +0.052 C 
DOCKED: BRANCH  38  39
DOCKED: ATOM     39  C   UNL d   1     -10.721   3.447  13.621 -0.35 +0.07    +0.115 C 
DOCKED: BRANCH  39  40
DOCKED: ATOM     40  C   UNL d   1     -11.350   3.346  12.253 -0.49 +0.15    +0.139 C 
DOCKED: ATOM     41  O   UNL d   1     -10.682   2.960  11.307 -0.66 -0.85    -0.650 OA
DOCKED: BRANCH  40  42
DOCKED: ATOM     42  O   UNL d   1     -12.654   3.625  12.065 -0.34 -1.14    -0.776 OA
DOCKED: ATOM     43  H   UNL d   1     -13.012   4.503  12.238 +0.06 +0.22    +0.167 HD
DOCKED: ENDBRANCH  40  42
DOCKED: ENDBRANCH  39  40
DOCKED: ENDBRANCH  38  39
DOCKED: ENDBRANCH  22  38
DOCKED: BRANCH  12  44
DOCKED: ATOM     44  C   UNL d   1     -15.351  14.618  14.976 +0.00 +0.00    +0.004 C 
DOCKED: ATOM     45  C   UNL d   1     -14.439  15.589  14.975 +0.00 -0.00    +0.012 C 
DOCKED: ENDBRANCH  12  44
DOCKED: BRANCH  17  46
DOCKED: ATOM     46  C   UNL d   1      -8.466  10.681  17.008 -0.10 +0.00    +0.004 C 
DOCKED: ATOM     47  C   UNL d   1      -7.391  10.327  16.293 -0.20 +0.00    +0.012 C 
DOCKED: ENDBRANCH  17  46
DOCKED: TORSDOF 10
DOCKED: TER
DOCKED: ENDMDL
________________________________________________________________________________


	BEGINNING GENETIC ALGORITHM DOCKING 65 of 100
Run: 65 Seed: 1647717828 568144458 [ Run 65 of 100 GA/GALS ]
Beginning LAMARCKIAN GENETIC ALGORITHM (LGA), with a maximum of 25000000 energy evaluations.

Final-Value: -10.972


	FINAL GENETIC ALGORITHM DOCKED STATE
	_______________________________________________


Detailed state:  trans 11.000 11.381 7.103 quatxyzw 0.681808 0.591545 0.391991 -0.177640 center 8.287 34.468 -0.670 ntor 10 179.1792 -73.6942 -15.6780 -89.7074 36.9286 159.8354 -87.8683 35.2100 -164.1700 -174.2044
State:	 11.000  11.381   7.103   0.693  0.601  0.398 -159.535    179.18  -73.69  -15.68  -89.71   36.93  159.84  -87.87   35.21 -164.17 -174.20

DOCKED: MODEL       65
DOCKED: USER    Run = 65
DOCKED: USER    DPF = D:/Protein_go_brrr/autodock/final/mut_Y35F/heme_O2/dock.dpf
DOCKED: USER  
DOCKED: USER    Estimated Free Energy of Binding    =   -5.68 kcal/mol  [=(1)+(2)+(3)-(4)]
DOCKED: USER    Estimated Inhibition Constant, Ki   =   68.45 uM (micromolar)  [Temperature = 298.15 K]
DOCKED: USER    
DOCKED: USER    (1) Final Intermolecular Energy     =   -8.66 kcal/mol
DOCKED: USER        vdW + Hbond + desolv Energy     =   -6.31 kcal/mol
DOCKED: USER        Electrostatic Energy            =   -2.35 kcal/mol
DOCKED: USER    (2) Final Total Internal Energy     =   -2.31 kcal/mol
DOCKED: USER    (3) Torsional Free Energy           =   +2.98 kcal/mol
DOCKED: USER    (4) Unbound System's Energy  [=(2)] =   -2.31 kcal/mol
DOCKED: USER    
DOCKED: USER    
DOCKED: USER    NEWDPF move heme_O2_opt.pdbqt
DOCKED: USER    NEWDPF about 8.287000 34.468000 -0.670000
DOCKED: USER    NEWDPF tran0 10.999922 11.381154 7.102659
DOCKED: USER    NEWDPF quaternion0 0.681808 0.591545 0.391991 -0.177640
DOCKED: USER    NEWDPF axisangle0 0.692827 0.601105 0.398326 -159.535349
DOCKED: USER    NEWDPF quat0 0.692827 0.601105 0.398326 -159.535349
DOCKED: USER    NEWDPF dihe0 179.18 -73.69 -15.68 -89.71 36.93 159.84 -87.87 35.21 -164.17 -174.20 
DOCKED: USER  keepresnum = 1 
DOCKED: USER  
DOCKED: REMARK  10 active torsions:
DOCKED: REMARK  status: ('A' for Active; 'I' for Inactive)
DOCKED: REMARK    1  A    between atoms: C_6  and  C_10 
DOCKED: REMARK    2  A    between atoms: C_10  and  C_11 
DOCKED: REMARK    3  A    between atoms: C_11  and  C_12 
DOCKED: REMARK    4  A    between atoms: C_12  and  O_14 
DOCKED: REMARK    5  A    between atoms: C_17  and  C_20 
DOCKED: REMARK    6  A    between atoms: C_24  and  C_27 
DOCKED: REMARK    7  A    between atoms: C_31  and  C_34 
DOCKED: REMARK    8  A    between atoms: C_34  and  C_35 
DOCKED: REMARK    9  A    between atoms: C_35  and  C_36 
DOCKED: REMARK   10  A    between atoms: C_36  and  O_38 
DOCKED: USER                              x       y       z     vdW  Elec       q    Type
DOCKED: USER                           _______ _______ _______ _____ _____    ______ ____
DOCKED: ROOT
DOCKED: ATOM      1  C   UNL d   1      10.819   9.292   7.425 -0.15 +0.02    +0.064 A 
DOCKED: ATOM      2  C   UNL d   1      11.752  11.871   3.547 -0.13 -0.01    +0.064 A 
DOCKED: ATOM      3  C   UNL d   1      11.383  15.952   6.059 -0.18 -0.01    +0.064 C 
DOCKED: ATOM      4  C   UNL d   1      10.896  13.292  10.152 -0.23 +0.02    +0.064 A 
DOCKED: ATOM      5  C   UNL d   1      11.105   9.661   6.165 -0.14 +0.01    +0.066 A 
DOCKED: ATOM      6  C   UNL d   1      11.269   8.764   5.106 -0.22 -0.00    -0.021 A 
DOCKED: ATOM      7  C   UNL d   1      11.582   9.507   3.991 -0.29 +0.00    -0.025 A 
DOCKED: ATOM      8  C   UNL d   1      11.552  10.841   4.391 -0.20 -0.00    +0.066 A 
DOCKED: ATOM      9  C   UNL d   1      11.917   8.931   2.633 -0.45 -0.00    +0.051 C 
DOCKED: ATOM     10  C   UNL d   1      11.710  13.291   3.902 -0.18 -0.01    +0.066 A 
DOCKED: ATOM     11  C   UNL d   1      11.761  14.322   2.958 -0.21 +0.00    -0.021 A 
DOCKED: ATOM     12  C   UNL d   1      11.639  15.506   3.661 -0.13 -0.00    +0.000 A 
DOCKED: ATOM     13  C   UNL d   1      11.529  15.122   5.027 -0.13 -0.01    +0.070 A 
DOCKED: ATOM     14  C   UNL d   1      11.894  14.183   1.446 -0.36 -0.02    +0.052 C 
DOCKED: ATOM     15  C   UNL d   1      11.305  15.605   7.458 -0.19 -0.00    +0.066 A 
DOCKED: ATOM     16  C   UNL d   1      11.318  16.528   8.503 -0.18 +0.00    -0.021 A 
DOCKED: ATOM     17  C   UNL d   1      11.181  15.792   9.680 -0.21 +0.00    +0.000 A 
DOCKED: ATOM     18  C   UNL d   1      11.091  14.458   9.259 -0.22 +0.01    +0.070 A 
DOCKED: ATOM     19  C   UNL d   1      11.513  18.008   8.291 -0.12 -0.00    +0.052 C 
DOCKED: ATOM     20  C   UNL d   1      10.849  11.996   9.786 -0.21 +0.02    +0.066 A 
DOCKED: ATOM     21  C   UNL d   1      10.645  10.941  10.671 -0.15 -0.01    -0.025 A 
DOCKED: ATOM     22  C   UNL d   1      10.593   9.797   9.908 -0.17 -0.01    -0.021 A 
DOCKED: ATOM     23  C   UNL d   1      10.786  10.195   8.582 -0.17 +0.02    +0.066 A 
DOCKED: ATOM     24  C   UNL d   1      10.511  11.022  12.170 -0.13 +0.03    +0.051 C 
DOCKED: ATOM     25  N   UNL d   1      11.323  10.931   5.744 -0.04 -0.02    -0.248 N 
DOCKED: ATOM     26  N   UNL d   1      11.579  13.772   5.164 -0.01 +0.01    -0.248 N 
DOCKED: ATOM     27  N   UNL d   1      11.244  14.357   7.914 -0.11 -0.01    -0.248 N 
DOCKED: ATOM     28  N   UNL d   1      10.987  11.527   8.517 -0.06 -0.04    -0.248 N 
DOCKED: ATOM     29 FE   UNL d   1      11.281  12.644   6.855 -0.04 +0.00    +0.000 Fe
DOCKED: ATOM     30  O   UNL d   1      12.697  12.272   6.326 -0.11 +0.00    +0.000 OA
DOCKED: ATOM     31  O   UNL d   1      12.533  12.844   7.785 -0.11 +0.00    +0.000 OA
DOCKED: ENDROOT
DOCKED: BRANCH   6  32
DOCKED: ATOM     32  C   UNL d   1      11.269   7.258   5.162 +0.06 +0.01    +0.052 C 
DOCKED: BRANCH  32  33
DOCKED: ATOM     33  C   UNL d   1      12.603   6.683   5.629 -0.20 +0.04    +0.115 C 
DOCKED: BRANCH  33  34
DOCKED: ATOM     34  C   UNL d   1      12.665   6.518   7.127 -0.12 +0.08    +0.139 C 
DOCKED: ATOM     35  O   UNL d   1      13.448   7.192   7.777 +0.04 -0.27    -0.650 OA
DOCKED: BRANCH  34  36
DOCKED: ATOM     36  O   UNL d   1      11.891   5.618   7.768 -0.26 -1.02    -0.776 OA
DOCKED: ATOM     37  H   UNL d   1      11.930   5.500   8.724 +0.02 +0.32    +0.167 HD
DOCKED: ENDBRANCH  34  36
DOCKED: ENDBRANCH  33  34
DOCKED: ENDBRANCH  32  33
DOCKED: ENDBRANCH   6  32
DOCKED: BRANCH  22  38
DOCKED: ATOM     38  C   UNL d   1      10.432   8.395  10.437 -0.13 +0.03    +0.052 C 
DOCKED: BRANCH  38  39
DOCKED: ATOM     39  C   UNL d   1      11.691   7.888  11.136 -0.06 +0.06    +0.115 C 
DOCKED: BRANCH  39  40
DOCKED: ATOM     40  C   UNL d   1      11.901   6.407  10.943 -0.06 +0.14    +0.139 C 
DOCKED: ATOM     41  O   UNL d   1      11.020   5.624  11.260 +0.09 -1.17    -0.650 OA
DOCKED: BRANCH  40  42
DOCKED: ATOM     42  O   UNL d   1      13.028   5.932  10.378 -0.01 -0.67    -0.776 OA
DOCKED: ATOM     43  H   UNL d   1      13.209   6.049   9.438 +0.02 +0.13    +0.167 HD
DOCKED: ENDBRANCH  40  42
DOCKED: ENDBRANCH  39  40
DOCKED: ENDBRANCH  38  39
DOCKED: ENDBRANCH  22  38
DOCKED: BRANCH  12  44
DOCKED: ATOM     44  C   UNL d   1      11.642  16.855   2.972 -0.10 -0.00    +0.004 C 
DOCKED: ATOM     45  C   UNL d   1      11.180  18.014   3.440 -0.08 -0.00    +0.012 C 
DOCKED: ENDBRANCH  12  44
DOCKED: BRANCH  17  46
DOCKED: ATOM     46  C   UNL d   1      11.186  16.225  11.122 -0.19 +0.00    +0.004 C 
DOCKED: ATOM     47  C   UNL d   1      12.210  16.218  11.985 -0.11 +0.00    +0.012 C 
DOCKED: ENDBRANCH  17  46
DOCKED: TORSDOF 10
DOCKED: TER
DOCKED: ENDMDL
________________________________________________________________________________


	BEGINNING GENETIC ALGORITHM DOCKING 66 of 100
Run: 66 Seed: 916189903 2127030679 [ Run 66 of 100 GA/GALS ]
Beginning LAMARCKIAN GENETIC ALGORITHM (LGA), with a maximum of 25000000 energy evaluations.

Final-Value: -9.022


	FINAL GENETIC ALGORITHM DOCKED STATE
	_______________________________________________


Detailed state:  trans 4.700 -11.061 7.978 quatxyzw 0.514830 0.573933 -0.195100 0.606207 center 8.287 34.468 -0.670 ntor 10 -4.9389 -70.6775 -70.8241 -104.5177 51.0396 35.6313 -101.0686 -59.5161 0.4013 40.1855
State:	  4.700 -11.061   7.978   0.647  0.722 -0.245 105.368     -4.94  -70.68  -70.82 -104.52   51.04   35.63 -101.07  -59.52    0.40   40.19

DOCKED: MODEL       66
DOCKED: USER    Run = 66
DOCKED: USER    DPF = D:/Protein_go_brrr/autodock/final/mut_Y35F/heme_O2/dock.dpf
DOCKED: USER  
DOCKED: USER    Estimated Free Energy of Binding    =   -5.30 kcal/mol  [=(1)+(2)+(3)-(4)]
DOCKED: USER    Estimated Inhibition Constant, Ki   =  131.41 uM (micromolar)  [Temperature = 298.15 K]
DOCKED: USER    
DOCKED: USER    (1) Final Intermolecular Energy     =   -8.28 kcal/mol
DOCKED: USER        vdW + Hbond + desolv Energy     =   -8.44 kcal/mol
DOCKED: USER        Electrostatic Energy            =   +0.16 kcal/mol
DOCKED: USER    (2) Final Total Internal Energy     =   -0.74 kcal/mol
DOCKED: USER    (3) Torsional Free Energy           =   +2.98 kcal/mol
DOCKED: USER    (4) Unbound System's Energy  [=(2)] =   -0.74 kcal/mol
DOCKED: USER    
DOCKED: USER    
DOCKED: USER    NEWDPF move heme_O2_opt.pdbqt
DOCKED: USER    NEWDPF about 8.287000 34.468000 -0.670000
DOCKED: USER    NEWDPF tran0 4.700178 -11.060731 7.978373
DOCKED: USER    NEWDPF quaternion0 0.514830 0.573933 -0.195100 0.606207
DOCKED: USER    NEWDPF axisangle0 0.647335 0.721649 -0.245314 105.368447
DOCKED: USER    NEWDPF quat0 0.647335 0.721649 -0.245314 105.368447
DOCKED: USER    NEWDPF dihe0 -4.94 -70.68 -70.82 -104.52 51.04 35.63 -101.07 -59.52 0.40 40.19 
DOCKED: USER  keepresnum = 1 
DOCKED: USER  
DOCKED: REMARK  10 active torsions:
DOCKED: REMARK  status: ('A' for Active; 'I' for Inactive)
DOCKED: REMARK    1  A    between atoms: C_6  and  C_10 
DOCKED: REMARK    2  A    between atoms: C_10  and  C_11 
DOCKED: REMARK    3  A    between atoms: C_11  and  C_12 
DOCKED: REMARK    4  A    between atoms: C_12  and  O_14 
DOCKED: REMARK    5  A    between atoms: C_17  and  C_20 
DOCKED: REMARK    6  A    between atoms: C_24  and  C_27 
DOCKED: REMARK    7  A    between atoms: C_31  and  C_34 
DOCKED: REMARK    8  A    between atoms: C_34  and  C_35 
DOCKED: REMARK    9  A    between atoms: C_35  and  C_36 
DOCKED: REMARK   10  A    between atoms: C_36  and  O_38 
DOCKED: USER                              x       y       z     vdW  Elec       q    Type
DOCKED: USER                           _______ _______ _______ _____ _____    ______ ____
DOCKED: ROOT
DOCKED: ATOM      1  C   UNL d   1       5.135 -12.691   6.693 -0.14 -0.01    +0.064 A 
DOCKED: ATOM      2  C   UNL d   1       1.156 -11.309   8.888 -0.16 -0.01    +0.064 A 
DOCKED: ATOM      3  C   UNL d   1       3.448  -7.599  10.906 -0.23 -0.04    +0.064 C 
DOCKED: ATOM      4  C   UNL d   1       7.431  -8.734   8.277 -0.15 -0.01    +0.064 A 
DOCKED: ATOM      5  C   UNL d   1       3.865 -12.617   7.124 -0.14 -0.01    +0.066 A 
DOCKED: ATOM      6  C   UNL d   1       2.868 -13.535   6.783 -0.23 +0.00    -0.021 A 
DOCKED: ATOM      7  C   UNL d   1       1.705 -13.112   7.383 -0.23 +0.00    -0.025 A 
DOCKED: ATOM      8  C   UNL d   1       2.035 -11.973   8.113 -0.16 -0.01    +0.066 A 
DOCKED: ATOM      9  C   UNL d   1       0.355 -13.774   7.217 -0.14 -0.00    +0.051 C 
DOCKED: ATOM     10  C   UNL d   1       1.449 -10.123   9.694 -0.15 -0.01    +0.066 A 
DOCKED: ATOM     11  C   UNL d   1       0.543  -9.570  10.606 -0.21 +0.00    -0.021 A 
DOCKED: ATOM     12  C   UNL d   1       1.192  -8.510  11.211 -0.25 -0.00    +0.000 A 
DOCKED: ATOM     13  C   UNL d   1       2.481  -8.468  10.612 -0.03 -0.02    +0.070 A 
DOCKED: ATOM     14  C   UNL d   1      -0.872 -10.050  10.907 -0.23 -0.01    +0.052 C 
DOCKED: ATOM     15  C   UNL d   1       4.753  -7.501  10.298 -0.19 -0.02    +0.066 A 
DOCKED: ATOM     16  C   UNL d   1       5.660  -6.468  10.534 -0.18 +0.01    -0.021 A 
DOCKED: ATOM     17  C   UNL d   1       6.803  -6.770   9.794 -0.15 -0.00    +0.000 A 
DOCKED: ATOM     18  C   UNL d   1       6.505  -7.981   9.155 -0.14 -0.01    +0.070 A 
DOCKED: ATOM     19  C   UNL d   1       5.337  -5.270  11.392 -0.23 -0.04    +0.052 C 
DOCKED: ATOM     20  C   UNL d   1       7.162  -9.876   7.614 -0.14 -0.01    +0.066 A 
DOCKED: ATOM     21  C   UNL d   1       8.082 -10.549   6.815 -0.21 +0.01    -0.025 A 
DOCKED: ATOM     22  C   UNL d   1       7.454 -11.693   6.377 -0.19 +0.00    -0.021 A 
DOCKED: ATOM     23  C   UNL d   1       6.163 -11.667   6.913 -0.13 -0.01    +0.066 A 
DOCKED: ATOM     24  C   UNL d   1       9.488 -10.120   6.482 +0.01 -0.03    +0.051 C 
DOCKED: ATOM     25  N   UNL d   1       3.351 -11.632   7.900 -0.08 +0.03    -0.248 N 
DOCKED: ATOM     26  N   UNL d   1       2.627  -9.450   9.686 -0.04 +0.03    -0.248 N 
DOCKED: ATOM     27  N   UNL d   1       5.230  -8.371   9.413 -0.10 +0.03    -0.248 N 
DOCKED: ATOM     28  N   UNL d   1       5.975 -10.538   7.628 -0.08 +0.03    -0.248 N 
DOCKED: ATOM     29 FE   UNL d   1       4.315  -9.995   8.650 -0.04 -0.00    +0.000 Fe
DOCKED: ATOM     30  O   UNL d   1       3.237  -9.654   7.580 -0.54 +0.00    +0.000 OA
DOCKED: ATOM     31  O   UNL d   1       4.604  -8.871   7.589 -0.83 +0.00    +0.000 OA
DOCKED: ENDROOT
DOCKED: BRANCH   6  32
DOCKED: ATOM     32  C   UNL d   1       2.967 -14.690   5.820 -0.12 -0.02    +0.052 C 
DOCKED: BRANCH  32  33
DOCKED: ATOM     33  C   UNL d   1       3.548 -15.947   6.461 -0.10 -0.03    +0.115 C 
DOCKED: BRANCH  33  34
DOCKED: ATOM     34  C   UNL d   1       2.545 -16.665   7.331 -0.09 -0.03    +0.139 C 
DOCKED: ATOM     35  O   UNL d   1       2.582 -16.515   8.542 +0.01 +0.07    -0.650 OA
DOCKED: BRANCH  34  36
DOCKED: ATOM     36  O   UNL d   1       1.622 -17.495   6.803 +0.05 +0.17    -0.776 OA
DOCKED: ATOM     37  H   UNL d   1       1.524 -17.610   5.850 -0.48 -0.08    +0.167 HD
DOCKED: ENDBRANCH  34  36
DOCKED: ENDBRANCH  33  34
DOCKED: ENDBRANCH  32  33
DOCKED: ENDBRANCH   6  32
DOCKED: BRANCH  22  38
DOCKED: ATOM     38  C   UNL d   1       8.045 -12.718   5.444 -0.23 -0.01    +0.052 C 
DOCKED: BRANCH  38  39
DOCKED: ATOM     39  C   UNL d   1       7.649 -14.144   5.819 -0.07 -0.02    +0.115 C 
DOCKED: BRANCH  39  40
DOCKED: ATOM     40  C   UNL d   1       6.883 -14.837   4.720 -0.15 -0.03    +0.139 C 
DOCKED: ATOM     41  O   UNL d   1       6.497 -15.984   4.881 +0.04 +0.11    -0.650 OA
DOCKED: BRANCH  40  42
DOCKED: ATOM     42  O   UNL d   1       6.569 -14.195   3.578 +0.01 +0.19    -0.776 OA
DOCKED: ATOM     43  H   UNL d   1       5.937 -13.467   3.566 -0.44 -0.08    +0.167 HD
DOCKED: ENDBRANCH  40  42
DOCKED: ENDBRANCH  39  40
DOCKED: ENDBRANCH  38  39
DOCKED: ENDBRANCH  22  38
DOCKED: BRANCH  12  44
DOCKED: ATOM     44  C   UNL d   1       0.527  -7.662  12.275 -0.34 -0.00    +0.004 C 
DOCKED: ATOM     45  C   UNL d   1       0.742  -7.681  13.590 -0.24 -0.01    +0.012 C 
DOCKED: ENDBRANCH  12  44
DOCKED: BRANCH  17  46
DOCKED: ATOM     46  C   UNL d   1       8.086  -6.005   9.601 -0.20 -0.00    +0.004 C 
DOCKED: ATOM     47  C   UNL d   1       8.536  -5.410   8.490 -0.37 +0.00    +0.012 C 
DOCKED: ENDBRANCH  17  46
DOCKED: TORSDOF 10
DOCKED: TER
DOCKED: ENDMDL
________________________________________________________________________________


	BEGINNING GENETIC ALGORITHM DOCKING 67 of 100
Run: 67 Seed: 2109339564 1968938914 [ Run 67 of 100 GA/GALS ]
Beginning LAMARCKIAN GENETIC ALGORITHM (LGA), with a maximum of 25000000 energy evaluations.

Final-Value: -11.448


	FINAL GENETIC ALGORITHM DOCKED STATE
	_______________________________________________


Detailed state:  trans 12.635 10.184 4.834 quatxyzw -0.001947 -0.422497 -0.631019 0.650621 center 8.287 34.468 -0.670 ntor 10 -46.6084 -94.4225 -50.0126 -33.4845 77.3073 123.0533 23.5723 60.5552 -23.0662 160.6327
State:	 12.635  10.184   4.834  -0.003 -0.556 -0.831 98.823    -46.61  -94.42  -50.01  -33.48   77.31  123.05   23.57   60.56  -23.07  160.63

DOCKED: MODEL       67
DOCKED: USER    Run = 67
DOCKED: USER    DPF = D:/Protein_go_brrr/autodock/final/mut_Y35F/heme_O2/dock.dpf
DOCKED: USER  
DOCKED: USER    Estimated Free Energy of Binding    =   -6.56 kcal/mol  [=(1)+(2)+(3)-(4)]
DOCKED: USER    Estimated Inhibition Constant, Ki   =   15.42 uM (micromolar)  [Temperature = 298.15 K]
DOCKED: USER    
DOCKED: USER    (1) Final Intermolecular Energy     =   -9.55 kcal/mol
DOCKED: USER        vdW + Hbond + desolv Energy     =   -6.80 kcal/mol
DOCKED: USER        Electrostatic Energy            =   -2.74 kcal/mol
DOCKED: USER    (2) Final Total Internal Energy     =   -1.90 kcal/mol
DOCKED: USER    (3) Torsional Free Energy           =   +2.98 kcal/mol
DOCKED: USER    (4) Unbound System's Energy  [=(2)] =   -1.90 kcal/mol
DOCKED: USER    
DOCKED: USER    
DOCKED: USER    NEWDPF move heme_O2_opt.pdbqt
DOCKED: USER    NEWDPF about 8.287000 34.468000 -0.670000
DOCKED: USER    NEWDPF tran0 12.635267 10.184433 4.833618
DOCKED: USER    NEWDPF quaternion0 -0.001947 -0.422497 -0.631019 0.650621
DOCKED: USER    NEWDPF axisangle0 -0.002564 -0.556354 -0.830942 98.823164
DOCKED: USER    NEWDPF quat0 -0.002564 -0.556354 -0.830942 98.823164
DOCKED: USER    NEWDPF dihe0 -46.61 -94.42 -50.01 -33.48 77.31 123.05 23.57 60.56 -23.07 160.63 
DOCKED: USER  keepresnum = 1 
DOCKED: USER  
DOCKED: REMARK  10 active torsions:
DOCKED: REMARK  status: ('A' for Active; 'I' for Inactive)
DOCKED: REMARK    1  A    between atoms: C_6  and  C_10 
DOCKED: REMARK    2  A    between atoms: C_10  and  C_11 
DOCKED: REMARK    3  A    between atoms: C_11  and  C_12 
DOCKED: REMARK    4  A    between atoms: C_12  and  O_14 
DOCKED: REMARK    5  A    between atoms: C_17  and  C_20 
DOCKED: REMARK    6  A    between atoms: C_24  and  C_27 
DOCKED: REMARK    7  A    between atoms: C_31  and  C_34 
DOCKED: REMARK    8  A    between atoms: C_34  and  C_35 
DOCKED: REMARK    9  A    between atoms: C_35  and  C_36 
DOCKED: REMARK   10  A    between atoms: C_36  and  O_38 
DOCKED: USER                              x       y       z     vdW  Elec       q    Type
DOCKED: USER                           _______ _______ _______ _____ _____    ______ ____
DOCKED: ROOT
DOCKED: ATOM      1  C   UNL d   1      11.987   8.344   5.665 -0.14 +0.01    +0.064 A 
DOCKED: ATOM      2  C   UNL d   1      16.089  10.723   5.945 -0.06 +0.02    +0.064 A 
DOCKED: ATOM      3  C   UNL d   1      14.386  14.180   3.073 -0.15 -0.01    +0.064 C 
DOCKED: ATOM      4  C   UNL d   1      10.001  11.983   3.165 -0.20 -0.01    +0.064 A 
DOCKED: ATOM      5  C   UNL d   1      13.241   8.710   5.977 -0.08 +0.01    +0.066 A 
DOCKED: ATOM      6  C   UNL d   1      14.099   7.955   6.782 -0.05 -0.01    -0.021 A 
DOCKED: ATOM      7  C   UNL d   1      15.272   8.664   6.899 -0.03 -0.01    -0.025 A 
DOCKED: ATOM      8  C   UNL d   1      15.115   9.809   6.123 -0.06 +0.02    +0.066 A 
DOCKED: ATOM      9  C   UNL d   1      16.454   8.247   7.747 -0.01 +0.01    +0.051 C 
DOCKED: ATOM     10  C   UNL d   1      15.991  11.931   5.125 -0.07 +0.01    +0.066 A 
DOCKED: ATOM     11  C   UNL d   1      17.082  12.760   4.842 -0.04 -0.00    -0.021 A 
DOCKED: ATOM     12  C   UNL d   1      16.615  13.753   4.001 -0.10 +0.00    +0.000 A 
DOCKED: ATOM     13  C   UNL d   1      15.232  13.474   3.824 -0.11 -0.00    +0.070 A 
DOCKED: ATOM     14  C   UNL d   1      18.516  12.596   5.332 -0.06 +0.01    +0.052 C 
DOCKED: ATOM     15  C   UNL d   1      12.972  13.951   2.896 -0.17 -0.01    +0.066 A 
DOCKED: ATOM     16  C   UNL d   1      12.108  14.820   2.230 -0.23 +0.01    -0.021 A 
DOCKED: ATOM     17  C   UNL d   1      10.852  14.215   2.244 -0.34 -0.00    +0.000 A 
DOCKED: ATOM     18  C   UNL d   1      11.046  13.005   2.925 -0.11 -0.02    +0.070 A 
DOCKED: ATOM     19  C   UNL d   1      12.543  16.161   1.694 -0.19 -0.03    +0.052 C 
DOCKED: ATOM     20  C   UNL d   1      10.142  10.832   3.851 -0.28 -0.01    +0.066 A 
DOCKED: ATOM     21  C   UNL d   1       9.125   9.899   4.028 -0.19 -0.00    -0.025 A 
DOCKED: ATOM     22  C   UNL d   1       9.680   8.843   4.715 -0.29 -0.00    -0.021 A 
DOCKED: ATOM     23  C   UNL d   1      11.017   9.180   4.948 -0.21 +0.01    +0.066 A 
DOCKED: ATOM     24  C   UNL d   1       7.694  10.011   3.569 -0.22 +0.00    +0.051 C 
DOCKED: ATOM     25  N   UNL d   1      13.841   9.868   5.608 -0.05 -0.04    -0.248 N 
DOCKED: ATOM     26  N   UNL d   1      14.859  12.367   4.515 -0.07 -0.02    -0.248 N 
DOCKED: ATOM     27  N   UNL d   1      12.321  12.896   3.378 -0.12 +0.04    -0.248 N 
DOCKED: ATOM     28  N   UNL d   1      11.282  10.409   4.460 -0.13 +0.00    -0.248 N 
DOCKED: ATOM     29 FE   UNL d   1      13.056  11.383   4.486 -0.04 +0.00    +0.000 Fe
DOCKED: ATOM     30  O   UNL d   1      13.318  11.772   5.970 -0.09 +0.00    +0.000 OA
DOCKED: ATOM     31  O   UNL d   1      12.014  12.281   5.248 -0.17 -0.00    +0.000 OA
DOCKED: ENDROOT
DOCKED: BRANCH   6  32
DOCKED: ATOM     32  C   UNL d   1      13.786   6.683   7.527 -0.06 +0.02    +0.052 C 
DOCKED: BRANCH  32  33
DOCKED: ATOM     33  C   UNL d   1      13.364   5.544   6.603 -0.17 +0.06    +0.115 C 
DOCKED: BRANCH  33  34
DOCKED: ATOM     34  C   UNL d   1      12.578   4.479   7.326 -0.18 +0.15    +0.139 C 
DOCKED: ATOM     35  O   UNL d   1      13.154   3.714   8.083 -0.14 -0.70    -0.650 OA
DOCKED: BRANCH  34  36
DOCKED: ATOM     36  O   UNL d   1      11.251   4.332   7.134 -0.28 -1.31    -0.776 OA
DOCKED: ATOM     37  H   UNL d   1      10.648   5.084   7.138 +0.03 +0.28    +0.167 HD
DOCKED: ENDBRANCH  34  36
DOCKED: ENDBRANCH  33  34
DOCKED: ENDBRANCH  32  33
DOCKED: ENDBRANCH   6  32
DOCKED: BRANCH  22  38
DOCKED: ATOM     38  C   UNL d   1       8.945   7.610   5.176 -0.09 +0.01    +0.052 C 
DOCKED: BRANCH  38  39
DOCKED: ATOM     39  C   UNL d   1       8.512   7.703   6.637 -0.27 +0.04    +0.115 C 
DOCKED: BRANCH  39  40
DOCKED: ATOM     40  C   UNL d   1       9.097   6.599   7.482 -0.22 +0.11    +0.139 C 
DOCKED: ATOM     41  O   UNL d   1       8.471   5.564   7.646 -0.17 -0.70    -0.650 OA
DOCKED: BRANCH  40  42
DOCKED: ATOM     42  O   UNL d   1      10.327   6.712   8.021 -0.19 -0.85    -0.776 OA
DOCKED: ATOM     43  H   UNL d   1      11.111   6.391   7.560 +0.04 +0.17    +0.167 HD
DOCKED: ENDBRANCH  40  42
DOCKED: ENDBRANCH  39  40
DOCKED: ENDBRANCH  38  39
DOCKED: ENDBRANCH  22  38
DOCKED: BRANCH  12  44
DOCKED: ATOM     44  C   UNL d   1      17.519  14.844   3.467 -0.09 -0.00    +0.004 C 
DOCKED: ATOM     45  C   UNL d   1      17.722  15.191   2.196 -0.14 -0.00    +0.012 C 
DOCKED: ENDBRANCH  12  44
DOCKED: BRANCH  17  46
DOCKED: ATOM     46  C   UNL d   1       9.518  14.695   1.737 -0.41 -0.00    +0.004 C 
DOCKED: ATOM     47  C   UNL d   1       8.996  15.926   1.815 -0.39 -0.00    +0.012 C 
DOCKED: ENDBRANCH  17  46
DOCKED: TORSDOF 10
DOCKED: TER
DOCKED: ENDMDL
________________________________________________________________________________


	BEGINNING GENETIC ALGORITHM DOCKING 68 of 100
Run: 68 Seed: 860653202 1873108897 [ Run 68 of 100 GA/GALS ]
Beginning LAMARCKIAN GENETIC ALGORITHM (LGA), with a maximum of 25000000 energy evaluations.

Final-Value: -8.758


	FINAL GENETIC ALGORITHM DOCKED STATE
	_______________________________________________


Detailed state:  trans -4.361 -10.237 -13.377 quatxyzw -0.411859 0.115556 0.485033 0.762734 center 8.287 34.468 -0.670 ntor 10 68.9643 52.6483 -65.7168 -134.1966 -167.1804 141.7799 -127.0065 156.4237 -34.2832 5.7642
State:	 -4.361 -10.237 -13.377  -0.637  0.179  0.750 80.588     68.96   52.65  -65.72 -134.20 -167.18  141.78 -127.01  156.42  -34.28    5.76

DOCKED: MODEL       68
DOCKED: USER    Run = 68
DOCKED: USER    DPF = D:/Protein_go_brrr/autodock/final/mut_Y35F/heme_O2/dock.dpf
DOCKED: USER  
DOCKED: USER    Estimated Free Energy of Binding    =   -3.94 kcal/mol  [=(1)+(2)+(3)-(4)]
DOCKED: USER    Estimated Inhibition Constant, Ki   =    1.29 mM (millimolar)  [Temperature = 298.15 K]
DOCKED: USER    
DOCKED: USER    (1) Final Intermolecular Energy     =   -6.92 kcal/mol
DOCKED: USER        vdW + Hbond + desolv Energy     =   -6.96 kcal/mol
DOCKED: USER        Electrostatic Energy            =   +0.03 kcal/mol
DOCKED: USER    (2) Final Total Internal Energy     =   -1.83 kcal/mol
DOCKED: USER    (3) Torsional Free Energy           =   +2.98 kcal/mol
DOCKED: USER    (4) Unbound System's Energy  [=(2)] =   -1.83 kcal/mol
DOCKED: USER    
DOCKED: USER    
DOCKED: USER    NEWDPF move heme_O2_opt.pdbqt
DOCKED: USER    NEWDPF about 8.287000 34.468000 -0.670000
DOCKED: USER    NEWDPF tran0 -4.360959 -10.237454 -13.376691
DOCKED: USER    NEWDPF quaternion0 -0.411859 0.115556 0.485033 0.762734
DOCKED: USER    NEWDPF axisangle0 -0.636850 0.178682 0.749997 80.588451
DOCKED: USER    NEWDPF quat0 -0.636850 0.178682 0.749997 80.588451
DOCKED: USER    NEWDPF dihe0 68.96 52.65 -65.72 -134.20 -167.18 141.78 -127.01 156.42 -34.28 5.76 
DOCKED: USER  keepresnum = 1 
DOCKED: USER  
DOCKED: REMARK  10 active torsions:
DOCKED: REMARK  status: ('A' for Active; 'I' for Inactive)
DOCKED: REMARK    1  A    between atoms: C_6  and  C_10 
DOCKED: REMARK    2  A    between atoms: C_10  and  C_11 
DOCKED: REMARK    3  A    between atoms: C_11  and  C_12 
DOCKED: REMARK    4  A    between atoms: C_12  and  O_14 
DOCKED: REMARK    5  A    between atoms: C_17  and  C_20 
DOCKED: REMARK    6  A    between atoms: C_24  and  C_27 
DOCKED: REMARK    7  A    between atoms: C_31  and  C_34 
DOCKED: REMARK    8  A    between atoms: C_34  and  C_35 
DOCKED: REMARK    9  A    between atoms: C_35  and  C_36 
DOCKED: REMARK   10  A    between atoms: C_36  and  O_38 
DOCKED: USER                              x       y       z     vdW  Elec       q    Type
DOCKED: USER                           _______ _______ _______ _____ _____    ______ ____
DOCKED: ROOT
DOCKED: ATOM      1  C   UNL d   1      -4.452  -8.148 -13.021 -0.11 -0.00    +0.064 A 
DOCKED: ATOM      2  C   UNL d   1      -7.754 -11.562 -12.952 -0.17 -0.01    +0.064 A 
DOCKED: ATOM      3  C   UNL d   1      -4.493 -14.869 -14.184 -0.24 +0.01    +0.064 C 
DOCKED: ATOM      4  C   UNL d   1      -0.997 -11.450 -13.792 -0.24 -0.00    +0.064 A 
DOCKED: ATOM      5  C   UNL d   1      -5.616  -8.807 -12.900 -0.13 -0.00    +0.066 A 
DOCKED: ATOM      6  C   UNL d   1      -6.831  -8.197 -12.574 -0.17 +0.00    -0.021 A 
DOCKED: ATOM      7  C   UNL d   1      -7.779  -9.191 -12.511 -0.19 +0.00    -0.025 A 
DOCKED: ATOM      8  C   UNL d   1      -7.128 -10.374 -12.848 -0.15 -0.01    +0.066 A 
DOCKED: ATOM      9  C   UNL d   1      -9.225  -8.984 -12.115 -0.23 -0.01    +0.051 C 
DOCKED: ATOM     10  C   UNL d   1      -7.129 -12.832 -13.323 -0.17 -0.00    +0.066 A 
DOCKED: ATOM     11  C   UNL d   1      -7.853 -14.002 -13.576 -0.18 -0.00    -0.021 A 
DOCKED: ATOM     12  C   UNL d   1      -6.932 -14.962 -13.950 -0.22 +0.00    +0.000 A 
DOCKED: ATOM     13  C   UNL d   1      -5.668 -14.313 -13.891 -0.21 +0.00    +0.070 A 
DOCKED: ATOM     14  C   UNL d   1      -9.364 -14.188 -13.490 -0.17 +0.00    +0.052 C 
DOCKED: ATOM     15  C   UNL d   1      -3.189 -14.257 -14.103 -0.17 +0.01    +0.066 A 
DOCKED: ATOM     16  C   UNL d   1      -1.983 -14.939 -14.265 -0.15 -0.00    -0.021 A 
DOCKED: ATOM     17  C   UNL d   1      -0.972 -13.985 -14.156 -0.17 +0.00    +0.000 A 
DOCKED: ATOM     18  C   UNL d   1      -1.646 -12.775 -13.936 -0.18 -0.00    +0.070 A 
DOCKED: ATOM     19  C   UNL d   1      -1.903 -16.434 -14.451 -0.20 +0.01    +0.052 C 
DOCKED: ATOM     20  C   UNL d   1      -1.609 -10.278 -13.537 -0.23 -0.00    +0.066 A 
DOCKED: ATOM     21  C   UNL d   1      -0.946  -9.058 -13.429 -0.27 -0.00    -0.025 A 
DOCKED: ATOM     22  C   UNL d   1      -1.918  -8.102 -13.237 -0.23 -0.00    -0.021 A 
DOCKED: ATOM     23  C   UNL d   1      -3.141  -8.779 -13.216 -0.12 -0.00    +0.066 A 
DOCKED: ATOM     24  C   UNL d   1       0.539  -8.819 -13.503 -0.10 +0.01    +0.051 C 
DOCKED: ATOM     25  N   UNL d   1      -5.782 -10.147 -13.023 -0.07 +0.02    -0.248 N 
DOCKED: ATOM     26  N   UNL d   1      -5.796 -13.018 -13.504 -0.12 +0.01    -0.248 N 
DOCKED: ATOM     27  N   UNL d   1      -2.985 -12.971 -13.832 -0.12 -0.00    -0.248 N 
DOCKED: ATOM     28  N   UNL d   1      -2.945 -10.106 -13.353 -0.13 +0.02    -0.248 N 
DOCKED: ATOM     29 FE   UNL d   1      -4.358 -11.554 -13.428 -0.04 -0.00    +0.000 Fe
DOCKED: ATOM     30  O   UNL d   1      -4.952 -11.657 -11.993 -0.44 -0.00    +0.000 OA
DOCKED: ATOM     31  O   UNL d   1      -3.409 -11.883 -12.218 -0.43 -0.00    +0.000 OA
DOCKED: ENDROOT
DOCKED: BRANCH   6  32
DOCKED: ATOM     32  C   UNL d   1      -7.069  -6.757 -12.200 -0.07 -0.01    +0.052 C 
DOCKED: BRANCH  32  33
DOCKED: ATOM     33  C   UNL d   1      -6.432  -5.777 -13.180 -0.10 -0.00    +0.115 C 
DOCKED: BRANCH  33  34
DOCKED: ATOM     34  C   UNL d   1      -6.792  -6.081 -14.614 -0.03 -0.00    +0.139 C 
DOCKED: ATOM     35  O   UNL d   1      -7.937  -6.396 -14.894 +0.01 +0.01    -0.650 OA
DOCKED: BRANCH  34  36
DOCKED: ATOM     36  O   UNL d   1      -5.867  -6.041 -15.595 +0.02 +0.00    -0.776 OA
DOCKED: ATOM     37  H   UNL d   1      -5.157  -6.691 -15.655 +0.01 -0.00    +0.167 HD
DOCKED: ENDBRANCH  34  36
DOCKED: ENDBRANCH  33  34
DOCKED: ENDBRANCH  32  33
DOCKED: ENDBRANCH   6  32
DOCKED: BRANCH  22  38
DOCKED: ATOM     38  C   UNL d   1      -1.672  -6.631 -13.021 -0.27 +0.00    +0.052 C 
DOCKED: BRANCH  38  39
DOCKED: ATOM     39  C   UNL d   1      -2.066  -5.791 -14.234 -0.08 +0.00    +0.115 C 
DOCKED: BRANCH  39  40
DOCKED: ATOM     40  C   UNL d   1      -2.033  -6.583 -15.518 -0.02 +0.00    +0.139 C 
DOCKED: ATOM     41  O   UNL d   1      -0.961  -6.883 -16.018 +0.04 -0.03    -0.650 OA
DOCKED: BRANCH  40  42
DOCKED: ATOM     42  O   UNL d   1      -3.170  -7.011 -16.100 +0.03 -0.01    -0.776 OA
DOCKED: ATOM     43  H   UNL d   1      -3.880  -6.400 -16.331 +0.01 +0.00    +0.167 HD
DOCKED: ENDBRANCH  40  42
DOCKED: ENDBRANCH  39  40
DOCKED: ENDBRANCH  38  39
DOCKED: ENDBRANCH  22  38
DOCKED: BRANCH  12  44
DOCKED: ATOM     44  C   UNL d   1      -7.345 -16.373 -14.314 -0.17 +0.00    +0.004 C 
DOCKED: ATOM     45  C   UNL d   1      -7.325 -16.948 -15.516 -0.15 +0.00    +0.012 C 
DOCKED: ENDBRANCH  12  44
DOCKED: BRANCH  17  46
DOCKED: ATOM     46  C   UNL d   1       0.526 -14.125 -14.184 -0.17 -0.00    +0.004 C 
DOCKED: ATOM     47  C   UNL d   1       1.433 -13.476 -13.442 -0.27 -0.00    +0.012 C 
DOCKED: ENDBRANCH  17  46
DOCKED: TORSDOF 10
DOCKED: TER
DOCKED: ENDMDL
________________________________________________________________________________


	BEGINNING GENETIC ALGORITHM DOCKING 69 of 100
Run: 69 Seed: 1624634954 479621765 [ Run 69 of 100 GA/GALS ]
Beginning LAMARCKIAN GENETIC ALGORITHM (LGA), with a maximum of 25000000 energy evaluations.

Final-Value: -9.133


	FINAL GENETIC ALGORITHM DOCKED STATE
	_______________________________________________


Detailed state:  trans -11.672 -0.341 -5.782 quatxyzw -0.645677 0.686582 0.212324 -0.258118 center 8.287 34.468 -0.670 ntor 10 -27.1578 -117.0974 -55.5464 51.6073 44.5825 -140.8102 -127.2996 73.5871 165.8994 163.0904
State:	-11.672  -0.341  -5.782  -0.668  0.711  0.220 -150.083    -27.16 -117.10  -55.55   51.61   44.58 -140.81 -127.30   73.59  165.90  163.09

DOCKED: MODEL       69
DOCKED: USER    Run = 69
DOCKED: USER    DPF = D:/Protein_go_brrr/autodock/final/mut_Y35F/heme_O2/dock.dpf
DOCKED: USER  
DOCKED: USER    Estimated Free Energy of Binding    =   -3.81 kcal/mol  [=(1)+(2)+(3)-(4)]
DOCKED: USER    Estimated Inhibition Constant, Ki   =    1.62 mM (millimolar)  [Temperature = 298.15 K]
DOCKED: USER    
DOCKED: USER    (1) Final Intermolecular Energy     =   -6.79 kcal/mol
DOCKED: USER        vdW + Hbond + desolv Energy     =   -6.68 kcal/mol
DOCKED: USER        Electrostatic Energy            =   -0.10 kcal/mol
DOCKED: USER    (2) Final Total Internal Energy     =   -2.34 kcal/mol
DOCKED: USER    (3) Torsional Free Energy           =   +2.98 kcal/mol
DOCKED: USER    (4) Unbound System's Energy  [=(2)] =   -2.34 kcal/mol
DOCKED: USER    
DOCKED: USER    
DOCKED: USER    NEWDPF move heme_O2_opt.pdbqt
DOCKED: USER    NEWDPF about 8.287000 34.468000 -0.670000
DOCKED: USER    NEWDPF tran0 -11.672007 -0.340975 -5.782146
DOCKED: USER    NEWDPF quaternion0 -0.645677 0.686582 0.212324 -0.258118
DOCKED: USER    NEWDPF axisangle0 -0.668325 0.710664 0.219771 -150.083180
DOCKED: USER    NEWDPF quat0 -0.668325 0.710664 0.219771 -150.083180
DOCKED: USER    NEWDPF dihe0 -27.16 -117.10 -55.55 51.61 44.58 -140.81 -127.30 73.59 165.90 163.09 
DOCKED: USER  keepresnum = 1 
DOCKED: USER  
DOCKED: REMARK  10 active torsions:
DOCKED: REMARK  status: ('A' for Active; 'I' for Inactive)
DOCKED: REMARK    1  A    between atoms: C_6  and  C_10 
DOCKED: REMARK    2  A    between atoms: C_10  and  C_11 
DOCKED: REMARK    3  A    between atoms: C_11  and  C_12 
DOCKED: REMARK    4  A    between atoms: C_12  and  O_14 
DOCKED: REMARK    5  A    between atoms: C_17  and  C_20 
DOCKED: REMARK    6  A    between atoms: C_24  and  C_27 
DOCKED: REMARK    7  A    between atoms: C_31  and  C_34 
DOCKED: REMARK    8  A    between atoms: C_34  and  C_35 
DOCKED: REMARK    9  A    between atoms: C_35  and  C_36 
DOCKED: REMARK   10  A    between atoms: C_36  and  O_38 
DOCKED: USER                              x       y       z     vdW  Elec       q    Type
DOCKED: USER                           _______ _______ _______ _____ _____    ______ ____
DOCKED: ROOT
DOCKED: ATOM      1  C   UNL d   1     -12.274   0.658  -4.010 -0.23 +0.00    +0.064 A 
DOCKED: ATOM      2  C   UNL d   1      -9.299   1.854  -7.514 -0.20 +0.00    +0.064 A 
DOCKED: ATOM      3  C   UNL d   1     -10.088  -2.332  -9.738 -0.19 +0.01    +0.064 C 
DOCKED: ATOM      4  C   UNL d   1     -13.515  -3.374  -6.386 -0.20 +0.01    +0.064 A 
DOCKED: ATOM      5  C   UNL d   1     -11.402   1.326  -4.783 -0.21 -0.00    +0.066 A 
DOCKED: ATOM      6  C   UNL d   1     -10.891   2.589  -4.474 -0.19 -0.00    -0.021 A 
DOCKED: ATOM      7  C   UNL d   1     -10.063   2.955  -5.509 -0.21 -0.00    -0.025 A 
DOCKED: ATOM      8  C   UNL d   1     -10.053   1.884  -6.398 -0.19 -0.00    +0.066 A 
DOCKED: ATOM      9  C   UNL d   1      -9.355   4.288  -5.622 -0.17 +0.03    +0.051 C 
DOCKED: ATOM     10  C   UNL d   1      -9.229   0.750  -8.472 -0.10 +0.00    +0.066 A 
DOCKED: ATOM     11  C   UNL d   1      -8.309   0.702  -9.525 -0.16 -0.00    -0.021 A 
DOCKED: ATOM     12  C   UNL d   1      -8.509  -0.506 -10.167 -0.14 +0.00    +0.000 A 
DOCKED: ATOM     13  C   UNL d   1      -9.572  -1.135  -9.462 -0.13 +0.01    +0.070 A 
DOCKED: ATOM     14  C   UNL d   1      -7.264   1.751  -9.886 -0.15 +0.01    +0.052 C 
DOCKED: ATOM     15  C   UNL d   1     -11.187  -2.988  -9.071 -0.20 +0.01    +0.066 A 
DOCKED: ATOM     16  C   UNL d   1     -11.789  -4.167  -9.510 -0.18 -0.00    -0.021 A 
DOCKED: ATOM     17  C   UNL d   1     -12.770  -4.483  -8.570 -0.26 +0.00    +0.000 A 
DOCKED: ATOM     18  C   UNL d   1     -12.691  -3.460  -7.614 -0.24 +0.01    +0.070 A 
DOCKED: ATOM     19  C   UNL d   1     -11.415  -4.849 -10.802 -0.13 -0.00    +0.052 C 
DOCKED: ATOM     20  C   UNL d   1     -13.495  -2.385  -5.471 -0.23 +0.01    +0.066 A 
DOCKED: ATOM     21  C   UNL d   1     -14.284  -2.367  -4.324 -0.30 -0.00    -0.025 A 
DOCKED: ATOM     22  C   UNL d   1     -13.924  -1.239  -3.622 -0.30 -0.00    -0.021 A 
DOCKED: ATOM     23  C   UNL d   1     -12.938  -0.598  -4.378 -0.08 +0.01    +0.066 A 
DOCKED: ATOM     24  C   UNL d   1     -15.330  -3.374  -3.921 -0.28 +0.01    +0.051 C 
DOCKED: ATOM     25  N   UNL d   1     -10.929   0.908  -5.983 -0.13 +0.01    -0.248 N 
DOCKED: ATOM     26  N   UNL d   1     -10.007  -0.362  -8.435 -0.08 -0.01    -0.248 N 
DOCKED: ATOM     27  N   UNL d   1     -11.777  -2.523  -7.973 -0.13 -0.04    -0.248 N 
DOCKED: ATOM     28  N   UNL d   1     -12.713  -1.275  -5.523 -0.07 -0.03    -0.248 N 
DOCKED: ATOM     29 FE   UNL d   1     -11.371  -0.824  -6.970 -0.06 +0.00    +0.000 Fe
DOCKED: ATOM     30  O   UNL d   1     -11.906   0.456  -7.676 -0.12 +0.00    +0.000 OA
DOCKED: ATOM     31  O   UNL d   1     -12.795  -0.844  -7.637 -0.13 +0.00    +0.000 OA
DOCKED: ENDROOT
DOCKED: BRANCH   6  32
DOCKED: ATOM     32  C   UNL d   1     -11.270   3.482  -3.320 -0.13 +0.00    +0.052 C 
DOCKED: BRANCH  32  33
DOCKED: ATOM     33  C   UNL d   1     -12.041   4.723  -3.759 -0.06 +0.01    +0.115 C 
DOCKED: BRANCH  33  34
DOCKED: ATOM     34  C   UNL d   1     -13.204   4.389  -4.659 -0.02 +0.01    +0.139 C 
DOCKED: ATOM     35  O   UNL d   1     -13.133   4.633  -5.853 +0.02 -0.05    -0.650 OA
DOCKED: BRANCH  34  36
DOCKED: ATOM     36  O   UNL d   1     -14.340   3.849  -4.170 +0.02 -0.04    -0.776 OA
DOCKED: ATOM     37  H   UNL d   1     -14.347   3.316  -3.366 +0.02 +0.01    +0.167 HD
DOCKED: ENDBRANCH  34  36
DOCKED: ENDBRANCH  33  34
DOCKED: ENDBRANCH  32  33
DOCKED: ENDBRANCH   6  32
DOCKED: BRANCH  22  38
DOCKED: ATOM     38  C   UNL d   1     -14.543  -0.775  -2.328 -0.16 +0.01    +0.052 C 
DOCKED: BRANCH  38  39
DOCKED: ATOM     39  C   UNL d   1     -15.655   0.248  -2.550 -0.10 +0.01    +0.115 C 
DOCKED: BRANCH  39  40
DOCKED: ATOM     40  C   UNL d   1     -15.244   1.642  -2.144 -0.06 +0.01    +0.139 C 
DOCKED: ATOM     41  O   UNL d   1     -14.104   1.851  -1.762 +0.03 -0.06    -0.650 OA
DOCKED: BRANCH  40  42
DOCKED: ATOM     42  O   UNL d   1     -16.101   2.676  -2.243 +0.03 -0.06    -0.776 OA
DOCKED: ATOM     43  H   UNL d   1     -15.944   3.405  -2.856 +0.01 +0.01    +0.167 HD
DOCKED: ENDBRANCH  40  42
DOCKED: ENDBRANCH  39  40
DOCKED: ENDBRANCH  38  39
DOCKED: ENDBRANCH  22  38
DOCKED: BRANCH  12  44
DOCKED: ATOM     44  C   UNL d   1      -7.683  -0.926 -11.366 -0.10 +0.00    +0.004 C 
DOCKED: ATOM     45  C   UNL d   1      -6.903  -1.999 -11.488 -0.15 +0.00    +0.012 C 
DOCKED: ENDBRANCH  12  44
DOCKED: BRANCH  17  46
DOCKED: ATOM     46  C   UNL d   1     -13.779  -5.599  -8.532 -0.29 +0.00    +0.004 C 
DOCKED: ATOM     47  C   UNL d   1     -13.588  -6.898  -8.796 -0.37 -0.00    +0.012 C 
DOCKED: ENDBRANCH  17  46
DOCKED: TORSDOF 10
DOCKED: TER
DOCKED: ENDMDL
________________________________________________________________________________


	BEGINNING GENETIC ALGORITHM DOCKING 70 of 100
Run: 70 Seed: 1668392366 634368294 [ Run 70 of 100 GA/GALS ]
Beginning LAMARCKIAN GENETIC ALGORITHM (LGA), with a maximum of 25000000 energy evaluations.

Final-Value: -8.491


	FINAL GENETIC ALGORITHM DOCKED STATE
	_______________________________________________


Detailed state:  trans 2.912 15.297 -11.266 quatxyzw 0.341370 -0.897632 -0.031238 0.277034 center 8.287 34.468 -0.670 ntor 10 -156.3283 -10.7754 -63.2505 120.3343 84.9168 -170.9277 -22.5065 -17.6674 9.5273 -13.2650
State:	  2.912  15.297 -11.266   0.355 -0.934 -0.033 147.833   -156.33  -10.78  -63.25  120.33   84.92 -170.93  -22.51  -17.67    9.53  -13.26

DOCKED: MODEL       70
DOCKED: USER    Run = 70
DOCKED: USER    DPF = D:/Protein_go_brrr/autodock/final/mut_Y35F/heme_O2/dock.dpf
DOCKED: USER  
DOCKED: USER    Estimated Free Energy of Binding    =   -5.03 kcal/mol  [=(1)+(2)+(3)-(4)]
DOCKED: USER    Estimated Inhibition Constant, Ki   =  205.70 uM (micromolar)  [Temperature = 298.15 K]
DOCKED: USER    
DOCKED: USER    (1) Final Intermolecular Energy     =   -8.01 kcal/mol
DOCKED: USER        vdW + Hbond + desolv Energy     =   -6.93 kcal/mol
DOCKED: USER        Electrostatic Energy            =   -1.08 kcal/mol
DOCKED: USER    (2) Final Total Internal Energy     =   -0.48 kcal/mol
DOCKED: USER    (3) Torsional Free Energy           =   +2.98 kcal/mol
DOCKED: USER    (4) Unbound System's Energy  [=(2)] =   -0.48 kcal/mol
DOCKED: USER    
DOCKED: USER    
DOCKED: USER    NEWDPF move heme_O2_opt.pdbqt
DOCKED: USER    NEWDPF about 8.287000 34.468000 -0.670000
DOCKED: USER    NEWDPF tran0 2.911542 15.297091 -11.265808
DOCKED: USER    NEWDPF quaternion0 0.341370 -0.897632 -0.031238 0.277034
DOCKED: USER    NEWDPF axisangle0 0.355275 -0.934196 -0.032510 147.833453
DOCKED: USER    NEWDPF quat0 0.355275 -0.934196 -0.032510 147.833453
DOCKED: USER    NEWDPF dihe0 -156.33 -10.78 -63.25 120.33 84.92 -170.93 -22.51 -17.67 9.53 -13.26 
DOCKED: USER  keepresnum = 1 
DOCKED: USER  
DOCKED: REMARK  10 active torsions:
DOCKED: REMARK  status: ('A' for Active; 'I' for Inactive)
DOCKED: REMARK    1  A    between atoms: C_6  and  C_10 
DOCKED: REMARK    2  A    between atoms: C_10  and  C_11 
DOCKED: REMARK    3  A    between atoms: C_11  and  C_12 
DOCKED: REMARK    4  A    between atoms: C_12  and  O_14 
DOCKED: REMARK    5  A    between atoms: C_17  and  C_20 
DOCKED: REMARK    6  A    between atoms: C_24  and  C_27 
DOCKED: REMARK    7  A    between atoms: C_31  and  C_34 
DOCKED: REMARK    8  A    between atoms: C_34  and  C_35 
DOCKED: REMARK    9  A    between atoms: C_35  and  C_36 
DOCKED: REMARK   10  A    between atoms: C_36  and  O_38 
DOCKED: USER                              x       y       z     vdW  Elec       q    Type
DOCKED: USER                           _______ _______ _______ _____ _____    ______ ____
DOCKED: ROOT
DOCKED: ATOM      1  C   UNL d   1       3.298  16.675  -9.700 -0.15 +0.01    +0.064 A 
DOCKED: ATOM      2  C   UNL d   1       6.061  14.798 -13.078 -0.18 +0.00    +0.064 A 
DOCKED: ATOM      3  C   UNL d   1       2.385  12.209 -14.774 -0.15 -0.00    +0.064 C 
DOCKED: ATOM      4  C   UNL d   1      -0.581  14.493 -11.604 -0.15 -0.00    +0.064 A 
DOCKED: ATOM      5  C   UNL d   1       4.349  16.377 -10.482 -0.05 +0.01    +0.066 A 
DOCKED: ATOM      6  C   UNL d   1       5.631  16.907 -10.305 -0.14 -0.00    -0.021 A 
DOCKED: ATOM      7  C   UNL d   1       6.421  16.398 -11.309 -0.14 -0.00    -0.025 A 
DOCKED: ATOM      8  C   UNL d   1       5.612  15.533 -12.042 -0.17 +0.01    +0.066 A 
DOCKED: ATOM      9  C   UNL d   1       7.870  16.767 -11.542 -0.09 +0.00    +0.051 C 
DOCKED: ATOM     10  C   UNL d   1       5.266  13.858 -13.870 -0.20 +0.00    +0.066 A 
DOCKED: ATOM     11  C   UNL d   1       5.818  13.000 -14.827 -0.18 -0.00    -0.021 A 
DOCKED: ATOM     12  C   UNL d   1       4.777  12.232 -15.315 -0.18 -0.00    +0.000 A 
DOCKED: ATOM     13  C   UNL d   1       3.621  12.684 -14.620 -0.14 -0.00    +0.070 A 
DOCKED: ATOM     14  C   UNL d   1       7.282  12.898 -15.239 -0.14 -0.00    +0.052 C 
DOCKED: ATOM     15  C   UNL d   1       1.183  12.662 -14.117 -0.04 -0.00    +0.066 A 
DOCKED: ATOM     16  C   UNL d   1      -0.104  12.236 -14.441 -0.12 +0.00    -0.021 A 
DOCKED: ATOM     17  C   UNL d   1      -0.967  12.875 -13.550 -0.12 -0.00    +0.000 A 
DOCKED: ATOM     18  C   UNL d   1      -0.130  13.652 -12.738 -0.16 -0.00    +0.070 A 
DOCKED: ATOM     19  C   UNL d   1      -0.398  11.309 -15.594 -0.08 -0.00    +0.052 C 
DOCKED: ATOM     20  C   UNL d   1       0.189  15.284 -10.833 -0.16 -0.00    +0.066 A 
DOCKED: ATOM     21  C   UNL d   1      -0.291  16.040  -9.767 -0.09 +0.00    -0.025 A 
DOCKED: ATOM     22  C   UNL d   1       0.805  16.648  -9.195 -0.11 +0.00    -0.021 A 
DOCKED: ATOM     23  C   UNL d   1       1.915  16.252  -9.948 -0.17 +0.00    +0.066 A 
DOCKED: ATOM     24  C   UNL d   1      -1.722  16.180  -9.319 -0.05 -0.01    +0.051 C 
DOCKED: ATOM     25  N   UNL d   1       4.320  15.572 -11.571 -0.14 -0.02    -0.248 N 
DOCKED: ATOM     26  N   UNL d   1       3.927  13.677 -13.747 -0.12 -0.00    -0.248 N 
DOCKED: ATOM     27  N   UNL d   1       1.163  13.569 -13.144 -0.09 +0.01    -0.248 N 
DOCKED: ATOM     28  N   UNL d   1       1.530  15.459 -10.969 -0.15 +0.00    -0.248 N 
DOCKED: ATOM     29 FE   UNL d   1       2.717  14.573 -12.349 -0.05 +0.00    +0.000 Fe
DOCKED: ATOM     30  O   UNL d   1       3.250  15.716 -13.263 -0.12 +0.00    +0.000 OA
DOCKED: ATOM     31  O   UNL d   1       1.697  15.488 -13.122 -0.11 -0.00    +0.000 OA
DOCKED: ENDROOT
DOCKED: BRANCH   6  32
DOCKED: ATOM     32  C   UNL d   1       6.068  17.957  -9.317 -0.13 +0.01    +0.052 C 
DOCKED: BRANCH  32  33
DOCKED: ATOM     33  C   UNL d   1       6.607  17.363  -8.020 -0.22 +0.05    +0.115 C 
DOCKED: BRANCH  33  34
DOCKED: ATOM     34  C   UNL d   1       7.557  18.296  -7.311 -0.13 +0.06    +0.139 C 
DOCKED: ATOM     35  O   UNL d   1       8.628  18.573  -7.827 +0.02 -0.08    -0.650 OA
DOCKED: BRANCH  34  36
DOCKED: ATOM     36  O   UNL d   1       7.262  18.812  -6.100 -0.48 -0.55    -0.776 OA
DOCKED: ATOM     37  H   UNL d   1       7.656  19.634  -5.785 +0.02 +0.06    +0.167 HD
DOCKED: ENDBRANCH  34  36
DOCKED: ENDBRANCH  33  34
DOCKED: ENDBRANCH  32  33
DOCKED: ENDBRANCH   6  32
DOCKED: BRANCH  22  38
DOCKED: ATOM     38  C   UNL d   1       0.772  17.604  -8.032 -0.07 -0.00    +0.052 C 
DOCKED: BRANCH  38  39
DOCKED: ATOM     39  C   UNL d   1       0.865  16.888  -6.686 -0.16 -0.01    +0.115 C 
DOCKED: BRANCH  39  40
DOCKED: ATOM     40  C   UNL d   1       1.284  17.811  -5.569 -0.09 +0.04    +0.139 C 
DOCKED: ATOM     41  O   UNL d   1       1.949  18.802  -5.820 -0.47 -0.37    -0.650 OA
DOCKED: BRANCH  40  42
DOCKED: ATOM     42  O   UNL d   1       0.892  17.589  -4.300 -0.36 -0.06    -0.776 OA
DOCKED: ATOM     43  H   UNL d   1       0.245  16.907  -4.083 -0.46 -0.21    +0.167 HD
DOCKED: ENDBRANCH  40  42
DOCKED: ENDBRANCH  39  40
DOCKED: ENDBRANCH  38  39
DOCKED: ENDBRANCH  22  38
DOCKED: BRANCH  12  44
DOCKED: ATOM     44  C   UNL d   1       4.988  11.171 -16.374 -0.14 -0.00    +0.004 C 
DOCKED: ATOM     45  C   UNL d   1       4.873   9.850 -16.244 -0.19 -0.00    +0.012 C 
DOCKED: ENDBRANCH  12  44
DOCKED: BRANCH  17  46
DOCKED: ATOM     46  C   UNL d   1      -2.469  12.857 -13.445 -0.06 -0.00    +0.004 C 
DOCKED: ATOM     47  C   UNL d   1      -3.225  12.351 -12.462 -0.07 -0.00    +0.012 C 
DOCKED: ENDBRANCH  17  46
DOCKED: TORSDOF 10
DOCKED: TER
DOCKED: ENDMDL
________________________________________________________________________________


	BEGINNING GENETIC ALGORITHM DOCKING 71 of 100
Run: 71 Seed: 467229027 507265983 [ Run 71 of 100 GA/GALS ]
Beginning LAMARCKIAN GENETIC ALGORITHM (LGA), with a maximum of 25000000 energy evaluations.

Final-Value: -9.605


	FINAL GENETIC ALGORITHM DOCKED STATE
	_______________________________________________


Detailed state:  trans -12.512 -1.231 -7.048 quatxyzw 0.166849 0.109769 -0.812425 -0.547794 center 8.287 34.468 -0.670 ntor 10 11.7191 118.7568 87.5985 -59.3226 -133.7245 -51.0956 -28.3008 -50.3579 -123.5101 -16.1507
State:	-12.512  -1.231  -7.048   0.199  0.131 -0.971 -113.568     11.72  118.76   87.60  -59.32 -133.72  -51.10  -28.30  -50.36 -123.51  -16.15

DOCKED: MODEL       71
DOCKED: USER    Run = 71
DOCKED: USER    DPF = D:/Protein_go_brrr/autodock/final/mut_Y35F/heme_O2/dock.dpf
DOCKED: USER  
DOCKED: USER    Estimated Free Energy of Binding    =   -5.12 kcal/mol  [=(1)+(2)+(3)-(4)]
DOCKED: USER    Estimated Inhibition Constant, Ki   =  176.77 uM (micromolar)  [Temperature = 298.15 K]
DOCKED: USER    
DOCKED: USER    (1) Final Intermolecular Energy     =   -8.10 kcal/mol
DOCKED: USER        vdW + Hbond + desolv Energy     =   -7.20 kcal/mol
DOCKED: USER        Electrostatic Energy            =   -0.91 kcal/mol
DOCKED: USER    (2) Final Total Internal Energy     =   -1.50 kcal/mol
DOCKED: USER    (3) Torsional Free Energy           =   +2.98 kcal/mol
DOCKED: USER    (4) Unbound System's Energy  [=(2)] =   -1.50 kcal/mol
DOCKED: USER    
DOCKED: USER    
DOCKED: USER    NEWDPF move heme_O2_opt.pdbqt
DOCKED: USER    NEWDPF about 8.287000 34.468000 -0.670000
DOCKED: USER    NEWDPF tran0 -12.512219 -1.231083 -7.047753
DOCKED: USER    NEWDPF quaternion0 0.166849 0.109769 -0.812425 -0.547794
DOCKED: USER    NEWDPF axisangle0 0.199433 0.131207 -0.971088 -113.568355
DOCKED: USER    NEWDPF quat0 0.199433 0.131207 -0.971088 -113.568355
DOCKED: USER    NEWDPF dihe0 11.72 118.76 87.60 -59.32 -133.72 -51.10 -28.30 -50.36 -123.51 -16.15 
DOCKED: USER  keepresnum = 1 
DOCKED: USER  
DOCKED: REMARK  10 active torsions:
DOCKED: REMARK  status: ('A' for Active; 'I' for Inactive)
DOCKED: REMARK    1  A    between atoms: C_6  and  C_10 
DOCKED: REMARK    2  A    between atoms: C_10  and  C_11 
DOCKED: REMARK    3  A    between atoms: C_11  and  C_12 
DOCKED: REMARK    4  A    between atoms: C_12  and  O_14 
DOCKED: REMARK    5  A    between atoms: C_17  and  C_20 
DOCKED: REMARK    6  A    between atoms: C_24  and  C_27 
DOCKED: REMARK    7  A    between atoms: C_31  and  C_34 
DOCKED: REMARK    8  A    between atoms: C_34  and  C_35 
DOCKED: REMARK    9  A    between atoms: C_35  and  C_36 
DOCKED: REMARK   10  A    between atoms: C_36  and  O_38 
DOCKED: USER                              x       y       z     vdW  Elec       q    Type
DOCKED: USER                           _______ _______ _______ _____ _____    ______ ____
DOCKED: ROOT
DOCKED: ATOM      1  C   UNL d   1     -11.190   0.428  -7.049 -0.13 +0.00    +0.064 A 
DOCKED: ATOM      2  C   UNL d   1     -14.681  -0.889  -4.110 -0.15 +0.01    +0.064 A 
DOCKED: ATOM      3  C   UNL d   1     -15.627  -4.748  -6.814 -0.01 +0.00    +0.064 C 
DOCKED: ATOM      4  C   UNL d   1     -11.726  -3.663  -9.584 -0.17 +0.00    +0.064 A 
DOCKED: ATOM      5  C   UNL d   1     -12.061   0.383  -6.028 -0.15 +0.00    +0.066 A 
DOCKED: ATOM      6  C   UNL d   1     -12.134   1.348  -5.019 -0.16 -0.00    -0.021 A 
DOCKED: ATOM      7  C   UNL d   1     -13.116   0.945  -4.144 -0.16 -0.00    -0.025 A 
DOCKED: ATOM      8  C   UNL d   1     -13.648  -0.230  -4.669 -0.16 +0.01    +0.066 A 
DOCKED: ATOM      9  C   UNL d   1     -13.478   1.661  -2.861 -0.15 +0.00    +0.051 C 
DOCKED: ATOM     10  C   UNL d   1     -15.296  -2.113  -4.626 -0.15 +0.01    +0.066 A 
DOCKED: ATOM     11  C   UNL d   1     -16.469  -2.665  -4.099 -0.13 -0.00    -0.021 A 
DOCKED: ATOM     12  C   UNL d   1     -16.768  -3.769  -4.877 -0.12 +0.00    +0.000 A 
DOCKED: ATOM     13  C   UNL d   1     -15.731  -3.835  -5.848 -0.08 +0.01    +0.070 A 
DOCKED: ATOM     14  C   UNL d   1     -17.285  -2.147  -2.921 -0.11 +0.02    +0.052 C 
DOCKED: ATOM     15  C   UNL d   1     -14.575  -4.871  -7.794 -0.11 +0.00    +0.066 A 
DOCKED: ATOM     16  C   UNL d   1     -14.435  -5.943  -8.674 -0.21 -0.00    -0.021 A 
DOCKED: ATOM     17  C   UNL d   1     -13.329  -5.656  -9.474 -0.24 +0.00    +0.000 A 
DOCKED: ATOM     18  C   UNL d   1     -12.871  -4.412  -9.016 -0.18 +0.00    +0.070 A 
DOCKED: ATOM     19  C   UNL d   1     -15.328  -7.158  -8.638 -0.26 +0.00    +0.052 C 
DOCKED: ATOM     20  C   UNL d   1     -11.234  -2.489  -9.141 -0.18 +0.01    +0.066 A 
DOCKED: ATOM     21  C   UNL d   1     -10.163  -1.821  -9.728 -0.17 -0.00    -0.025 A 
DOCKED: ATOM     22  C   UNL d   1     -10.013  -0.640  -9.036 -0.13 -0.00    -0.021 A 
DOCKED: ATOM     23  C   UNL d   1     -10.991  -0.640  -8.037 -0.09 +0.01    +0.066 A 
DOCKED: ATOM     24  C   UNL d   1      -9.322  -2.288 -10.889 -0.11 +0.01    +0.051 C 
DOCKED: ATOM     25  N   UNL d   1     -12.954  -0.610  -5.794 -0.10 -0.02    -0.248 N 
DOCKED: ATOM     26  N   UNL d   1     -14.837  -2.827  -5.685 -0.10 -0.02    -0.248 N 
DOCKED: ATOM     27  N   UNL d   1     -13.593  -3.987  -7.948 -0.11 -0.02    -0.248 N 
DOCKED: ATOM     28  N   UNL d   1     -11.702  -1.786  -8.076 -0.11 -0.03    -0.248 N 
DOCKED: ATOM     29 FE   UNL d   1     -13.258  -2.305  -6.891 -0.04 +0.00    +0.000 Fe
DOCKED: ATOM     30  O   UNL d   1     -12.660  -2.570  -5.478 -0.26 +0.00    +0.000 OA
DOCKED: ATOM     31  O   UNL d   1     -12.144  -3.401  -6.713 -0.37 +0.00    +0.000 OA
DOCKED: ENDROOT
DOCKED: BRANCH   6  32
DOCKED: ATOM     32  C   UNL d   1     -11.227   2.532  -4.807 -0.17 +0.00    +0.052 C 
DOCKED: BRANCH  32  33
DOCKED: ATOM     33  C   UNL d   1      -9.761   2.211  -5.080 -0.25 -0.01    +0.115 C 
DOCKED: BRANCH  33  34
DOCKED: ATOM     34  C   UNL d   1      -8.995   3.408  -5.586 -0.25 +0.04    +0.139 C 
DOCKED: ATOM     35  O   UNL d   1      -8.675   4.293  -4.809 -0.61 -0.35    -0.650 OA
DOCKED: BRANCH  34  36
DOCKED: ATOM     36  O   UNL d   1      -8.676   3.539  -6.891 -0.42 -0.40    -0.776 OA
DOCKED: ATOM     37  H   UNL d   1      -9.062   2.974  -7.570 +0.03 +0.04    +0.167 HD
DOCKED: ENDBRANCH  34  36
DOCKED: ENDBRANCH  33  34
DOCKED: ENDBRANCH  32  33
DOCKED: ENDBRANCH   6  32
DOCKED: BRANCH  22  38
DOCKED: ATOM     38  C   UNL d   1      -8.947   0.395  -9.285 -0.15 +0.00    +0.052 C 
DOCKED: BRANCH  38  39
DOCKED: ATOM     39  C   UNL d   1      -9.343   1.386 -10.377 -0.04 +0.01    +0.115 C 
DOCKED: BRANCH  39  40
DOCKED: ATOM     40  C   UNL d   1      -9.188   2.821  -9.937 -0.05 +0.02    +0.139 C 
DOCKED: ATOM     41  O   UNL d   1      -8.152   3.420 -10.175 -0.00 -0.16    -0.650 OA
DOCKED: BRANCH  40  42
DOCKED: ATOM     42  O   UNL d   1     -10.197   3.473  -9.327 +0.05 -0.14    -0.776 OA
DOCKED: ATOM     43  H   UNL d   1     -10.093   3.853  -8.446 +0.03 +0.04    +0.167 HD
DOCKED: ENDBRANCH  40  42
DOCKED: ENDBRANCH  39  40
DOCKED: ENDBRANCH  38  39
DOCKED: ENDBRANCH  22  38
DOCKED: BRANCH  12  44
DOCKED: ATOM     44  C   UNL d   1     -17.986  -4.630  -4.616 -0.09 +0.00    +0.004 C 
DOCKED: ATOM     45  C   UNL d   1     -18.051  -5.771  -3.931 -0.14 +0.00    +0.012 C 
DOCKED: ENDBRANCH  12  44
DOCKED: BRANCH  17  46
DOCKED: ATOM     46  C   UNL d   1     -12.657  -6.458 -10.556 -0.29 -0.00    +0.004 C 
DOCKED: ATOM     47  C   UNL d   1     -11.995  -7.616 -10.440 -0.21 -0.00    +0.012 C 
DOCKED: ENDBRANCH  17  46
DOCKED: TORSDOF 10
DOCKED: TER
DOCKED: ENDMDL
________________________________________________________________________________


	BEGINNING GENETIC ALGORITHM DOCKING 72 of 100
Run: 72 Seed: 2051794452 1409953581 [ Run 72 of 100 GA/GALS ]
Beginning LAMARCKIAN GENETIC ALGORITHM (LGA), with a maximum of 25000000 energy evaluations.

Final-Value: -10.796


	FINAL GENETIC ALGORITHM DOCKED STATE
	_______________________________________________


Detailed state:  trans 11.165 13.920 7.720 quatxyzw 0.327634 0.644864 -0.158150 -0.672157 center 8.287 34.468 -0.670 ntor 10 -67.1824 142.3132 44.9919 48.1189 -100.5638 -10.6033 -21.6889 64.3262 -170.2218 176.4403
State:	 11.165  13.920   7.720   0.443  0.871 -0.214 -95.532    -67.18  142.31   44.99   48.12 -100.56  -10.60  -21.69   64.33 -170.22  176.44

DOCKED: MODEL       72
DOCKED: USER    Run = 72
DOCKED: USER    DPF = D:/Protein_go_brrr/autodock/final/mut_Y35F/heme_O2/dock.dpf
DOCKED: USER  
DOCKED: USER    Estimated Free Energy of Binding    =   -5.77 kcal/mol  [=(1)+(2)+(3)-(4)]
DOCKED: USER    Estimated Inhibition Constant, Ki   =   59.27 uM (micromolar)  [Temperature = 298.15 K]
DOCKED: USER    
DOCKED: USER    (1) Final Intermolecular Energy     =   -8.75 kcal/mol
DOCKED: USER        vdW + Hbond + desolv Energy     =   -6.97 kcal/mol
DOCKED: USER        Electrostatic Energy            =   -1.78 kcal/mol
DOCKED: USER    (2) Final Total Internal Energy     =   -2.05 kcal/mol
DOCKED: USER    (3) Torsional Free Energy           =   +2.98 kcal/mol
DOCKED: USER    (4) Unbound System's Energy  [=(2)] =   -2.05 kcal/mol
DOCKED: USER    
DOCKED: USER    
DOCKED: USER    NEWDPF move heme_O2_opt.pdbqt
DOCKED: USER    NEWDPF about 8.287000 34.468000 -0.670000
DOCKED: USER    NEWDPF tran0 11.164614 13.920283 7.719693
DOCKED: USER    NEWDPF quaternion0 0.327634 0.644864 -0.158150 -0.672157
DOCKED: USER    NEWDPF axisangle0 0.442504 0.870957 -0.213599 -95.532415
DOCKED: USER    NEWDPF quat0 0.442504 0.870957 -0.213599 -95.532415
DOCKED: USER    NEWDPF dihe0 -67.18 142.31 44.99 48.12 -100.56 -10.60 -21.69 64.33 -170.22 176.44 
DOCKED: USER  keepresnum = 1 
DOCKED: USER  
DOCKED: REMARK  10 active torsions:
DOCKED: REMARK  status: ('A' for Active; 'I' for Inactive)
DOCKED: REMARK    1  A    between atoms: C_6  and  C_10 
DOCKED: REMARK    2  A    between atoms: C_10  and  C_11 
DOCKED: REMARK    3  A    between atoms: C_11  and  C_12 
DOCKED: REMARK    4  A    between atoms: C_12  and  O_14 
DOCKED: REMARK    5  A    between atoms: C_17  and  C_20 
DOCKED: REMARK    6  A    between atoms: C_24  and  C_27 
DOCKED: REMARK    7  A    between atoms: C_31  and  C_34 
DOCKED: REMARK    8  A    between atoms: C_34  and  C_35 
DOCKED: REMARK    9  A    between atoms: C_35  and  C_36 
DOCKED: REMARK   10  A    between atoms: C_36  and  O_38 
DOCKED: USER                              x       y       z     vdW  Elec       q    Type
DOCKED: USER                           _______ _______ _______ _____ _____    ______ ____
DOCKED: ROOT
DOCKED: ATOM      1  C   UNL d   1      10.715  14.486   9.714 -0.24 +0.02    +0.064 A 
DOCKED: ATOM      2  C   UNL d   1      11.952  10.339   7.757 -0.09 +0.01    +0.064 A 
DOCKED: ATOM      3  C   UNL d   1      12.134  12.347   3.395 -0.23 -0.01    +0.064 C 
DOCKED: ATOM      4  C   UNL d   1      11.330  16.721   5.464 -0.12 -0.01    +0.064 A 
DOCKED: ATOM      5  C   UNL d   1      11.038  13.194   9.538 -0.21 +0.02    +0.066 A 
DOCKED: ATOM      6  C   UNL d   1      11.078  12.250  10.568 -0.20 -0.01    -0.021 A 
DOCKED: ATOM      7  C   UNL d   1      11.478  11.058  10.009 -0.14 -0.01    -0.025 A 
DOCKED: ATOM      8  C   UNL d   1      11.625  11.297   8.646 -0.12 +0.01    +0.066 A 
DOCKED: ATOM      9  C   UNL d   1      11.726   9.781  10.781 -0.09 +0.02    +0.051 C 
DOCKED: ATOM     10  C   UNL d   1      12.098  10.523   6.312 -0.10 +0.01    +0.066 A 
DOCKED: ATOM     11  C   UNL d   1      12.277   9.464   5.416 -0.14 -0.00    -0.021 A 
DOCKED: ATOM     12  C   UNL d   1      12.314  10.021   4.151 -0.25 +0.00    +0.000 A 
DOCKED: ATOM     13  C   UNL d   1      12.164  11.421   4.353 -0.18 -0.00    +0.070 A 
DOCKED: ATOM     14  C   UNL d   1      12.381   7.980   5.749 -0.17 +0.01    +0.052 C 
DOCKED: ATOM     15  C   UNL d   1      12.020  13.775   3.560 -0.16 -0.01    +0.066 A 
DOCKED: ATOM     16  C   UNL d   1      12.160  14.704   2.529 -0.20 +0.01    -0.021 A 
DOCKED: ATOM     17  C   UNL d   1      11.935  15.959   3.096 -0.10 -0.00    +0.000 A 
DOCKED: ATOM     18  C   UNL d   1      11.670  15.698   4.447 -0.10 -0.01    +0.070 A 
DOCKED: ATOM     19  C   UNL d   1      12.545  14.320   1.123 -0.44 -0.02    +0.052 C 
DOCKED: ATOM     20  C   UNL d   1      11.112  16.510   6.776 -0.14 -0.01    +0.066 A 
DOCKED: ATOM     21  C   UNL d   1      10.778  17.512   7.683 -0.11 +0.00    -0.025 A 
DOCKED: ATOM     22  C   UNL d   1      10.573  16.890   8.894 -0.19 +0.00    -0.021 A 
DOCKED: ATOM     23  C   UNL d   1      10.807  15.527   8.684 -0.23 +0.00    +0.066 A 
DOCKED: ATOM     24  C   UNL d   1      10.664  18.989   7.409 -0.14 -0.01    +0.051 C 
DOCKED: ATOM     25  N   UNL d   1      11.417  12.628   8.366 -0.03 -0.03    -0.248 N 
DOCKED: ATOM     26  N   UNL d   1      12.038  11.718   5.671 -0.06 -0.01    -0.248 N 
DOCKED: ATOM     27  N   UNL d   1      11.799  14.376   4.726 -0.07 +0.02    -0.248 N 
DOCKED: ATOM     28  N   UNL d   1      11.179  15.307   7.406 -0.14 +0.01    -0.248 N 
DOCKED: ATOM     29 FE   UNL d   1      11.606  13.527   6.543 -0.04 +0.00    +0.000 Fe
DOCKED: ATOM     30  O   UNL d   1      12.958  13.060   7.156 -0.09 +0.00    +0.000 OA
DOCKED: ATOM     31  O   UNL d   1      12.879  14.439   6.398 -0.08 -0.00    +0.000 OA
DOCKED: ENDROOT
DOCKED: BRANCH   6  32
DOCKED: ATOM     32  C   UNL d   1      10.882  12.484  12.043 -0.18 +0.04    +0.052 C 
DOCKED: BRANCH  32  33
DOCKED: ATOM     33  C   UNL d   1      12.170  12.888  12.755 -0.10 +0.07    +0.115 C 
DOCKED: BRANCH  33  34
DOCKED: ATOM     34  C   UNL d   1      11.908  13.657  14.026 -0.04 +0.15    +0.139 C 
DOCKED: ATOM     35  O   UNL d   1      12.118  13.128  15.106 -0.14 -0.59    -0.650 OA
DOCKED: BRANCH  34  36
DOCKED: ATOM     36  O   UNL d   1      11.418  14.914  13.999 -0.42 -1.24    -0.776 OA
DOCKED: ATOM     37  H   UNL d   1      11.927  15.653  13.647 +0.01 +0.13    +0.167 HD
DOCKED: ENDBRANCH  34  36
DOCKED: ENDBRANCH  33  34
DOCKED: ENDBRANCH  32  33
DOCKED: ENDBRANCH   6  32
DOCKED: BRANCH  22  38
DOCKED: ATOM     38  C   UNL d   1      10.233  17.580  10.190 -0.22 +0.01    +0.052 C 
DOCKED: BRANCH  38  39
DOCKED: ATOM     39  C   UNL d   1      11.466  18.152  10.885 -0.08 +0.01    +0.115 C 
DOCKED: BRANCH  39  40
DOCKED: ATOM     40  C   UNL d   1      11.722  17.510  12.226 -0.08 +0.04    +0.139 C 
DOCKED: ATOM     41  O   UNL d   1      12.851  17.151  12.520 +0.01 -0.15    -0.650 OA
DOCKED: BRANCH  40  42
DOCKED: ATOM     42  O   UNL d   1      10.733  17.370  13.130 -0.02 -0.40    -0.776 OA
DOCKED: ATOM     43  H   UNL d   1      10.688  16.603  13.714 +0.01 +0.16    +0.167 HD
DOCKED: ENDBRANCH  40  42
DOCKED: ENDBRANCH  39  40
DOCKED: ENDBRANCH  38  39
DOCKED: ENDBRANCH  22  38
DOCKED: BRANCH  12  44
DOCKED: ATOM     44  C   UNL d   1      12.489   9.177   2.906 -0.48 -0.00    +0.004 C 
DOCKED: ATOM     45  C   UNL d   1      13.230   9.446   1.831 -0.40 -0.00    +0.012 C 
DOCKED: ENDBRANCH  12  44
DOCKED: BRANCH  17  46
DOCKED: ATOM     46  C   UNL d   1      12.006  17.339   2.499 -0.09 -0.00    +0.004 C 
DOCKED: ATOM     47  C   UNL d   1      11.572  17.747   1.300 -0.13 -0.01    +0.012 C 
DOCKED: ENDBRANCH  17  46
DOCKED: TORSDOF 10
DOCKED: TER
DOCKED: ENDMDL
________________________________________________________________________________


	BEGINNING GENETIC ALGORITHM DOCKING 73 of 100
Run: 73 Seed: 1959351602 1934649534 [ Run 73 of 100 GA/GALS ]
Beginning LAMARCKIAN GENETIC ALGORITHM (LGA), with a maximum of 25000000 energy evaluations.

Final-Value: -10.617


	FINAL GENETIC ALGORITHM DOCKED STATE
	_______________________________________________


Detailed state:  trans 12.014 10.104 5.233 quatxyzw 0.935636 0.315923 -0.069103 0.141429 center 8.287 34.468 -0.670 ntor 10 -79.3501 112.5225 104.3947 -102.3838 59.0746 -170.8123 63.3346 3.7975 -11.2611 180.0000
State:	 12.014  10.104   5.233   0.945  0.319 -0.070 163.739    -79.35  112.52  104.39 -102.38   59.07 -170.81   63.33    3.80  -11.26  180.00

DOCKED: MODEL       73
DOCKED: USER    Run = 73
DOCKED: USER    DPF = D:/Protein_go_brrr/autodock/final/mut_Y35F/heme_O2/dock.dpf
DOCKED: USER  
DOCKED: USER    Estimated Free Energy of Binding    =   -7.19 kcal/mol  [=(1)+(2)+(3)-(4)]
DOCKED: USER    Estimated Inhibition Constant, Ki   =    5.36 uM (micromolar)  [Temperature = 298.15 K]
DOCKED: USER    
DOCKED: USER    (1) Final Intermolecular Energy     =  -10.17 kcal/mol
DOCKED: USER        vdW + Hbond + desolv Energy     =   -7.83 kcal/mol
DOCKED: USER        Electrostatic Energy            =   -2.35 kcal/mol
DOCKED: USER    (2) Final Total Internal Energy     =   -0.44 kcal/mol
DOCKED: USER    (3) Torsional Free Energy           =   +2.98 kcal/mol
DOCKED: USER    (4) Unbound System's Energy  [=(2)] =   -0.44 kcal/mol
DOCKED: USER    
DOCKED: USER    
DOCKED: USER    NEWDPF move heme_O2_opt.pdbqt
DOCKED: USER    NEWDPF about 8.287000 34.468000 -0.670000
DOCKED: USER    NEWDPF tran0 12.013900 10.103514 5.233024
DOCKED: USER    NEWDPF quaternion0 0.935636 0.315923 -0.069103 0.141429
DOCKED: USER    NEWDPF axisangle0 0.945137 0.319130 -0.069804 163.738881
DOCKED: USER    NEWDPF quat0 0.945137 0.319130 -0.069804 163.738881
DOCKED: USER    NEWDPF dihe0 -79.35 112.52 104.39 -102.38 59.07 -170.81 63.33 3.80 -11.26 180.00 
DOCKED: USER  keepresnum = 1 
DOCKED: USER  
DOCKED: REMARK  10 active torsions:
DOCKED: REMARK  status: ('A' for Active; 'I' for Inactive)
DOCKED: REMARK    1  A    between atoms: C_6  and  C_10 
DOCKED: REMARK    2  A    between atoms: C_10  and  C_11 
DOCKED: REMARK    3  A    between atoms: C_11  and  C_12 
DOCKED: REMARK    4  A    between atoms: C_12  and  O_14 
DOCKED: REMARK    5  A    between atoms: C_17  and  C_20 
DOCKED: REMARK    6  A    between atoms: C_24  and  C_27 
DOCKED: REMARK    7  A    between atoms: C_31  and  C_34 
DOCKED: REMARK    8  A    between atoms: C_34  and  C_35 
DOCKED: REMARK    9  A    between atoms: C_35  and  C_36 
DOCKED: REMARK   10  A    between atoms: C_36  and  O_38 
DOCKED: USER                              x       y       z     vdW  Elec       q    Type
DOCKED: USER                           _______ _______ _______ _____ _____    ______ ____
DOCKED: ROOT
DOCKED: ATOM      1  C   UNL d   1      11.054   8.327   5.882 -0.17 +0.01    +0.064 A 
DOCKED: ATOM      2  C   UNL d   1       9.614  11.937   3.153 -0.29 -0.01    +0.064 A 
DOCKED: ATOM      3  C   UNL d   1      13.841  14.157   3.698 -0.10 -0.01    +0.064 C 
DOCKED: ATOM      4  C   UNL d   1      15.502  10.224   6.114 -0.06 +0.01    +0.064 A 
DOCKED: ATOM      5  C   UNL d   1      10.318   9.127   5.094 -0.22 +0.01    +0.066 A 
DOCKED: ATOM      6  C   UNL d   1       9.002   8.853   4.711 -0.21 -0.00    -0.021 A 
DOCKED: ATOM      7  C   UNL d   1       8.599   9.876   3.886 -0.17 -0.00    -0.025 A 
DOCKED: ATOM      8  C   UNL d   1       9.663  10.772   3.826 -0.30 -0.00    +0.066 A 
DOCKED: ATOM      9  C   UNL d   1       7.261   9.944   3.181 -0.48 +0.00    +0.051 C 
DOCKED: ATOM     10  C   UNL d   1      10.689  12.927   3.073 -0.22 -0.01    +0.066 A 
DOCKED: ATOM     11  C   UNL d   1      10.529  14.193   2.498 -0.35 +0.00    -0.021 A 
DOCKED: ATOM     12  C   UNL d   1      11.732  14.854   2.661 -0.21 -0.00    +0.000 A 
DOCKED: ATOM     13  C   UNL d   1      12.581  13.930   3.330 -0.14 -0.01    +0.070 A 
DOCKED: ATOM     14  C   UNL d   1       9.272  14.757   1.845 -0.44 -0.01    +0.052 C 
DOCKED: ATOM     15  C   UNL d   1      14.745  13.236   4.345 -0.09 +0.00    +0.066 A 
DOCKED: ATOM     16  C   UNL d   1      16.102  13.476   4.556 -0.08 -0.00    -0.021 A 
DOCKED: ATOM     17  C   UNL d   1      16.597  12.368   5.243 -0.08 +0.00    +0.000 A 
DOCKED: ATOM     18  C   UNL d   1      15.489  11.524   5.403 -0.07 +0.01    +0.070 A 
DOCKED: ATOM     19  C   UNL d   1      16.810  14.704   4.040 -0.06 -0.00    +0.052 C 
DOCKED: ATOM     20  C   UNL d   1      14.469   9.370   6.249 -0.06 +0.01    +0.066 A 
DOCKED: ATOM     21  C   UNL d   1      14.537   8.167   6.946 -0.03 -0.01    -0.025 A 
DOCKED: ATOM     22  C   UNL d   1      13.272   7.625   6.914 -0.07 -0.01    -0.021 A 
DOCKED: ATOM     23  C   UNL d   1      12.479   8.514   6.180 -0.09 +0.02    +0.066 A 
DOCKED: ATOM     24  C   UNL d   1      15.749   7.562   7.606 -0.01 +0.01    +0.051 C 
DOCKED: ATOM     25  N   UNL d   1      10.745  10.277   4.517 -0.15 +0.00    -0.248 N 
DOCKED: ATOM     26  N   UNL d   1      11.940  12.758   3.573 -0.12 +0.04    -0.248 N 
DOCKED: ATOM     27  N   UNL d   1      14.391  12.032   4.787 -0.07 -0.02    -0.248 N 
DOCKED: ATOM     28  N   UNL d   1      13.222   9.550   5.740 -0.04 -0.04    -0.248 N 
DOCKED: ATOM     29 FE   UNL d   1      12.588  11.143   4.664 -0.04 +0.00    +0.000 Fe
DOCKED: ATOM     30  O   UNL d   1      12.259  10.604   3.242 -0.36 -0.00    +0.000 OA
DOCKED: ATOM     31  O   UNL d   1      13.710  10.425   3.828 -0.30 +0.00    +0.000 OA
DOCKED: ENDROOT
DOCKED: BRANCH   6  32
DOCKED: ATOM     32  C   UNL d   1       8.198   7.611   4.996 -0.28 +0.01    +0.052 C 
DOCKED: BRANCH  32  33
DOCKED: ATOM     33  C   UNL d   1       7.758   7.511   6.453 -0.30 +0.03    +0.115 C 
DOCKED: BRANCH  33  34
DOCKED: ATOM     34  C   UNL d   1       8.311   6.285   7.138 -0.28 +0.09    +0.139 C 
DOCKED: ATOM     35  O   UNL d   1       7.660   5.253   7.145 -0.05 -0.42    -0.650 OA
DOCKED: BRANCH  34  36
DOCKED: ATOM     36  O   UNL d   1       9.502   6.311   7.771 -0.32 -0.90    -0.776 OA
DOCKED: ATOM     37  H   UNL d   1      10.337   6.254   7.291 +0.04 +0.18    +0.167 HD
DOCKED: ENDBRANCH  34  36
DOCKED: ENDBRANCH  33  34
DOCKED: ENDBRANCH  32  33
DOCKED: ENDBRANCH   6  32
DOCKED: BRANCH  22  38
DOCKED: ATOM     38  C   UNL d   1      12.869   6.298   7.502 -0.13 +0.03    +0.052 C 
DOCKED: BRANCH  38  39
DOCKED: ATOM     39  C   UNL d   1      13.287   5.121   6.623 -0.19 +0.07    +0.115 C 
DOCKED: BRANCH  39  40
DOCKED: ATOM     40  C   UNL d   1      12.829   3.796   7.177 -0.21 +0.13    +0.139 C 
DOCKED: ATOM     41  O   UNL d   1      12.644   3.672   8.377 -0.19 -1.08    -0.650 OA
DOCKED: BRANCH  40  42
DOCKED: ATOM     42  O   UNL d   1      12.570   2.753   6.364 -0.37 -0.56    -0.776 OA
DOCKED: ATOM     43  H   UNL d   1      13.096   1.946   6.396 +0.07 +0.08    +0.167 HD
DOCKED: ENDBRANCH  40  42
DOCKED: ENDBRANCH  39  40
DOCKED: ENDBRANCH  38  39
DOCKED: ENDBRANCH  22  38
DOCKED: BRANCH  12  44
DOCKED: ATOM     44  C   UNL d   1      11.943  16.271   2.169 -0.16 -0.00    +0.004 C 
DOCKED: ATOM     45  C   UNL d   1      12.211  16.674   0.927 -0.23 -0.01    +0.012 C 
DOCKED: ENDBRANCH  12  44
DOCKED: BRANCH  17  46
DOCKED: ATOM     46  C   UNL d   1      17.993  12.026   5.692 -0.06 +0.00    +0.004 C 
DOCKED: ATOM     47  C   UNL d   1      18.811  11.083   5.209 -0.08 +0.00    +0.012 C 
DOCKED: ENDBRANCH  17  46
DOCKED: TORSDOF 10
DOCKED: TER
DOCKED: ENDMDL
________________________________________________________________________________


	BEGINNING GENETIC ALGORITHM DOCKING 74 of 100
Run: 74 Seed: 595979218 740306503 [ Run 74 of 100 GA/GALS ]
Beginning LAMARCKIAN GENETIC ALGORITHM (LGA), with a maximum of 25000000 energy evaluations.

Final-Value: -9.021


	FINAL GENETIC ALGORITHM DOCKED STATE
	_______________________________________________


Detailed state:  trans 17.025 1.726 6.961 quatxyzw -0.504636 0.674735 -0.494028 -0.214505 center 8.287 34.468 -0.670 ntor 10 153.5587 -15.1838 42.0788 107.3328 100.9877 124.0393 -40.1775 128.7704 -155.0328 -15.5970
State:	 17.025   1.726   6.961  -0.517  0.691 -0.506 -155.227    153.56  -15.18   42.08  107.33  100.99  124.04  -40.18  128.77 -155.03  -15.60

DOCKED: MODEL       74
DOCKED: USER    Run = 74
DOCKED: USER    DPF = D:/Protein_go_brrr/autodock/final/mut_Y35F/heme_O2/dock.dpf
DOCKED: USER  
DOCKED: USER    Estimated Free Energy of Binding    =   -5.33 kcal/mol  [=(1)+(2)+(3)-(4)]
DOCKED: USER    Estimated Inhibition Constant, Ki   =  123.00 uM (micromolar)  [Temperature = 298.15 K]
DOCKED: USER    
DOCKED: USER    (1) Final Intermolecular Energy     =   -8.32 kcal/mol
DOCKED: USER        vdW + Hbond + desolv Energy     =   -5.48 kcal/mol
DOCKED: USER        Electrostatic Energy            =   -2.84 kcal/mol
DOCKED: USER    (2) Final Total Internal Energy     =   -0.70 kcal/mol
DOCKED: USER    (3) Torsional Free Energy           =   +2.98 kcal/mol
DOCKED: USER    (4) Unbound System's Energy  [=(2)] =   -0.70 kcal/mol
DOCKED: USER    
DOCKED: USER    
DOCKED: USER    NEWDPF move heme_O2_opt.pdbqt
DOCKED: USER    NEWDPF about 8.287000 34.468000 -0.670000
DOCKED: USER    NEWDPF tran0 17.024957 1.726346 6.961328
DOCKED: USER    NEWDPF quaternion0 -0.504636 0.674735 -0.494028 -0.214505
DOCKED: USER    NEWDPF axisangle0 -0.516662 0.690815 -0.505801 -155.227052
DOCKED: USER    NEWDPF quat0 -0.516662 0.690815 -0.505801 -155.227052
DOCKED: USER    NEWDPF dihe0 153.56 -15.18 42.08 107.33 100.99 124.04 -40.18 128.77 -155.03 -15.60 
DOCKED: USER  keepresnum = 1 
DOCKED: USER  
DOCKED: REMARK  10 active torsions:
DOCKED: REMARK  status: ('A' for Active; 'I' for Inactive)
DOCKED: REMARK    1  A    between atoms: C_6  and  C_10 
DOCKED: REMARK    2  A    between atoms: C_10  and  C_11 
DOCKED: REMARK    3  A    between atoms: C_11  and  C_12 
DOCKED: REMARK    4  A    between atoms: C_12  and  O_14 
DOCKED: REMARK    5  A    between atoms: C_17  and  C_20 
DOCKED: REMARK    6  A    between atoms: C_24  and  C_27 
DOCKED: REMARK    7  A    between atoms: C_31  and  C_34 
DOCKED: REMARK    8  A    between atoms: C_34  and  C_35 
DOCKED: REMARK    9  A    between atoms: C_35  and  C_36 
DOCKED: REMARK   10  A    between atoms: C_36  and  O_38 
DOCKED: USER                              x       y       z     vdW  Elec       q    Type
DOCKED: USER                           _______ _______ _______ _____ _____    ______ ____
DOCKED: ROOT
DOCKED: ATOM      1  C   UNL d   1      16.858   3.758   6.374 -0.06 +0.02    +0.064 A 
DOCKED: ATOM      2  C   UNL d   1      20.590   1.033   7.472 -0.01 +0.01    +0.064 A 
DOCKED: ATOM      3  C   UNL d   1      17.712  -2.713   8.355 -0.02 +0.01    +0.064 C 
DOCKED: ATOM      4  C   UNL d   1      13.904  -0.058   6.767 -0.24 +0.01    +0.064 A 
DOCKED: ATOM      5  C   UNL d   1      18.108   3.322   6.599 -0.04 +0.02    +0.066 A 
DOCKED: ATOM      6  C   UNL d   1      19.249   4.120   6.478 -0.04 -0.01    -0.021 A 
DOCKED: ATOM      7  C   UNL d   1      20.333   3.321   6.753 -0.02 -0.01    -0.025 A 
DOCKED: ATOM      8  C   UNL d   1      19.822   2.068   7.083 -0.02 +0.01    +0.066 A 
DOCKED: ATOM      9  C   UNL d   1      21.778   3.761   6.665 -0.02 +0.01    +0.051 C 
DOCKED: ATOM     10  C   UNL d   1      20.109  -0.296   7.852 -0.01 +0.01    +0.066 A 
DOCKED: ATOM     11  C   UNL d   1      20.932  -1.284   8.405 -0.00 -0.00    -0.021 A 
DOCKED: ATOM     12  C   UNL d   1      20.117  -2.365   8.683 -0.00 +0.00    +0.000 A 
DOCKED: ATOM     13  C   UNL d   1      18.816  -1.972   8.263 -0.01 +0.01    +0.070 A 
DOCKED: ATOM     14  C   UNL d   1      22.428  -1.189   8.682 +0.00 +0.00    +0.052 C 
DOCKED: ATOM     15  C   UNL d   1      16.384  -2.366   7.909 -0.05 +0.01    +0.066 A 
DOCKED: ATOM     16  C   UNL d   1      15.303  -3.247   7.883 -0.09 -0.00    -0.021 A 
DOCKED: ATOM     17  C   UNL d   1      14.206  -2.512   7.433 -0.21 +0.00    +0.000 A 
DOCKED: ATOM     18  C   UNL d   1      14.706  -1.220   7.217 -0.16 +0.01    +0.070 A 
DOCKED: ATOM     19  C   UNL d   1      15.425  -4.709   8.233 -0.09 +0.02    +0.052 C 
DOCKED: ATOM     20  C   UNL d   1      14.361   1.183   6.509 -0.24 +0.02    +0.066 A 
DOCKED: ATOM     21  C   UNL d   1      13.553   2.242   6.104 -0.36 -0.01    -0.025 A 
DOCKED: ATOM     22  C   UNL d   1      14.373   3.344   6.013 -0.24 -0.01    -0.021 A 
DOCKED: ATOM     23  C   UNL d   1      15.659   2.911   6.351 -0.11 +0.02    +0.066 A 
DOCKED: ATOM     24  C   UNL d   1      12.075   2.204   5.814 +0.05 +0.03    +0.051 C 
DOCKED: ATOM     25  N   UNL d   1      18.455   2.052   6.924 -0.01 -0.05    -0.248 N 
DOCKED: ATOM     26  N   UNL d   1      18.821  -0.714   7.754 -0.01 -0.03    -0.248 N 
DOCKED: ATOM     27  N   UNL d   1      16.045  -1.169   7.440 -0.05 -0.05    -0.248 N 
DOCKED: ATOM     28  N   UNL d   1      15.655   1.586   6.607 -0.07 -0.06    -0.248 N 
DOCKED: ATOM     29 FE   UNL d   1      17.225   0.442   7.177 -0.01 +0.00    +0.000 Fe
DOCKED: ATOM     30  O   UNL d   1      18.156   0.332   5.934 -0.11 +0.00    +0.000 OA
DOCKED: ATOM     31  O   UNL d   1      16.663  -0.160   5.837 -0.10 +0.00    +0.000 OA
DOCKED: ENDROOT
DOCKED: BRANCH   6  32
DOCKED: ATOM     32  C   UNL d   1      19.332   5.543   5.988 -0.08 +0.02    +0.052 C 
DOCKED: BRANCH  32  33
DOCKED: ATOM     33  C   UNL d   1      19.085   5.668   4.488 -0.12 +0.09    +0.115 C 
DOCKED: BRANCH  33  34
DOCKED: ATOM     34  C   UNL d   1      18.204   6.844   4.146 -0.25 +0.10    +0.139 C 
DOCKED: ATOM     35  O   UNL d   1      17.150   7.001   4.741 -0.01 -0.27    -0.650 OA
DOCKED: BRANCH  34  36
DOCKED: ATOM     36  O   UNL d   1      18.542   7.717   3.175 -0.53 -0.93    -0.776 OA
DOCKED: ATOM     37  H   UNL d   1      17.880   8.226   2.693 -0.32 +0.10    +0.167 HD
DOCKED: ENDBRANCH  34  36
DOCKED: ENDBRANCH  33  34
DOCKED: ENDBRANCH  32  33
DOCKED: ENDBRANCH   6  32
DOCKED: BRANCH  22  38
DOCKED: ATOM     38  C   UNL d   1      13.951   4.719   5.565 -0.28 +0.02    +0.052 C 
DOCKED: BRANCH  38  39
DOCKED: ATOM     39  C   UNL d   1      13.398   5.561   6.713 -0.16 +0.06    +0.115 C 
DOCKED: BRANCH  39  40
DOCKED: ATOM     40  C   UNL d   1      12.305   4.852   7.474 -0.02 +0.17    +0.139 C 
DOCKED: ATOM     41  O   UNL d   1      11.140   5.002   7.142 -0.50 -1.00    -0.650 OA
DOCKED: BRANCH  40  42
DOCKED: ATOM     42  O   UNL d   1      12.595   4.012   8.486 -0.13 -1.37    -0.776 OA
DOCKED: ATOM     43  H   UNL d   1      13.495   3.701   8.642 +0.03 +0.17    +0.167 HD
DOCKED: ENDBRANCH  40  42
DOCKED: ENDBRANCH  39  40
DOCKED: ENDBRANCH  38  39
DOCKED: ENDBRANCH  22  38
DOCKED: BRANCH  12  44
DOCKED: ATOM     44  C   UNL d   1      20.654  -3.638   9.304 -0.00 +0.00    +0.004 C 
DOCKED: ATOM     45  C   UNL d   1      20.296  -4.893   9.038 +0.00 +0.00    +0.012 C 
DOCKED: ENDBRANCH  12  44
DOCKED: BRANCH  17  46
DOCKED: ATOM     46  C   UNL d   1      12.789  -2.929   7.144 -0.40 +0.00    +0.004 C 
DOCKED: ATOM     47  C   UNL d   1      11.704  -2.765   7.912 -0.37 +0.00    +0.012 C 
DOCKED: ENDBRANCH  17  46
DOCKED: TORSDOF 10
DOCKED: TER
DOCKED: ENDMDL
________________________________________________________________________________


	BEGINNING GENETIC ALGORITHM DOCKING 75 of 100
Run: 75 Seed: 1045486209 1794072551 [ Run 75 of 100 GA/GALS ]
Beginning LAMARCKIAN GENETIC ALGORITHM (LGA), with a maximum of 25000000 energy evaluations.

Final-Value: -9.874


	FINAL GENETIC ALGORITHM DOCKED STATE
	_______________________________________________


Detailed state:  trans -15.728 6.606 5.020 quatxyzw 0.404192 0.490766 -0.255270 -0.728433 center 8.287 34.468 -0.670 ntor 10 25.9510 126.5330 47.2933 -109.7968 72.8655 -41.6485 146.3799 118.3722 -143.4240 -177.0431
State:	-15.728   6.606   5.020   0.590  0.716 -0.373 -86.490     25.95  126.53   47.29 -109.80   72.87  -41.65  146.38  118.37 -143.42 -177.04

DOCKED: MODEL       75
DOCKED: USER    Run = 75
DOCKED: USER    DPF = D:/Protein_go_brrr/autodock/final/mut_Y35F/heme_O2/dock.dpf
DOCKED: USER  
DOCKED: USER    Estimated Free Energy of Binding    =   -4.46 kcal/mol  [=(1)+(2)+(3)-(4)]
DOCKED: USER    Estimated Inhibition Constant, Ki   =  540.45 uM (micromolar)  [Temperature = 298.15 K]
DOCKED: USER    
DOCKED: USER    (1) Final Intermolecular Energy     =   -7.44 kcal/mol
DOCKED: USER        vdW + Hbond + desolv Energy     =   -3.81 kcal/mol
DOCKED: USER        Electrostatic Energy            =   -3.63 kcal/mol
DOCKED: USER    (2) Final Total Internal Energy     =   -2.43 kcal/mol
DOCKED: USER    (3) Torsional Free Energy           =   +2.98 kcal/mol
DOCKED: USER    (4) Unbound System's Energy  [=(2)] =   -2.43 kcal/mol
DOCKED: USER    
DOCKED: USER    
DOCKED: USER    NEWDPF move heme_O2_opt.pdbqt
DOCKED: USER    NEWDPF about 8.287000 34.468000 -0.670000
DOCKED: USER    NEWDPF tran0 -15.727777 6.606124 5.020155
DOCKED: USER    NEWDPF quaternion0 0.404192 0.490766 -0.255270 -0.728433
DOCKED: USER    NEWDPF axisangle0 0.589960 0.716325 -0.372593 -86.489616
DOCKED: USER    NEWDPF quat0 0.589960 0.716325 -0.372593 -86.489616
DOCKED: USER    NEWDPF dihe0 25.95 126.53 47.29 -109.80 72.87 -41.65 146.38 118.37 -143.42 -177.04 
DOCKED: USER  keepresnum = 1 
DOCKED: USER  
DOCKED: REMARK  10 active torsions:
DOCKED: REMARK  status: ('A' for Active; 'I' for Inactive)
DOCKED: REMARK    1  A    between atoms: C_6  and  C_10 
DOCKED: REMARK    2  A    between atoms: C_10  and  C_11 
DOCKED: REMARK    3  A    between atoms: C_11  and  C_12 
DOCKED: REMARK    4  A    between atoms: C_12  and  O_14 
DOCKED: REMARK    5  A    between atoms: C_17  and  C_20 
DOCKED: REMARK    6  A    between atoms: C_24  and  C_27 
DOCKED: REMARK    7  A    between atoms: C_31  and  C_34 
DOCKED: REMARK    8  A    between atoms: C_34  and  C_35 
DOCKED: REMARK    9  A    between atoms: C_35  and  C_36 
DOCKED: REMARK   10  A    between atoms: C_36  and  O_38 
DOCKED: USER                              x       y       z     vdW  Elec       q    Type
DOCKED: USER                           _______ _______ _______ _____ _____    ______ ____
DOCKED: ROOT
DOCKED: ATOM      1  C   UNL d   1     -16.397   7.558   6.793 +0.00 +0.03    +0.064 A 
DOCKED: ATOM      2  C   UNL d   1     -16.152   2.995   5.498 -0.04 +0.02    +0.064 A 
DOCKED: ATOM      3  C   UNL d   1     -14.391   4.215   1.197 -0.10 +0.01    +0.064 C 
DOCKED: ATOM      4  C   UNL d   1     -14.190   8.882   2.693 -0.06 +0.01    +0.064 A 
DOCKED: ATOM      5  C   UNL d   1     -16.473   6.217   6.793 -0.02 +0.03    +0.066 A 
DOCKED: ATOM      6  C   UNL d   1     -16.962   5.460   7.861 -0.08 -0.01    -0.021 A 
DOCKED: ATOM      7  C   UNL d   1     -16.852   4.137   7.504 -0.20 -0.02    -0.025 A 
DOCKED: ATOM      8  C   UNL d   1     -16.342   4.124   6.209 -0.14 +0.03    +0.066 A 
DOCKED: ATOM      9  C   UNL d   1     -17.198   2.967   8.399 +0.06 +0.04    +0.051 C 
DOCKED: ATOM     10  C   UNL d   1     -15.643   2.919   4.128 -0.14 +0.02    +0.066 A 
DOCKED: ATOM     11  C   UNL d   1     -15.619   1.737   3.380 -0.21 -0.00    -0.021 A 
DOCKED: ATOM     12  C   UNL d   1     -15.131   2.072   2.131 -0.14 +0.00    +0.000 A 
DOCKED: ATOM     13  C   UNL d   1     -14.867   3.468   2.193 -0.08 +0.01    +0.070 A 
DOCKED: ATOM     14  C   UNL d   1     -16.069   0.352   3.830 -0.37 +0.02    +0.052 C 
DOCKED: ATOM     15  C   UNL d   1     -14.077   5.623   1.230 -0.06 +0.01    +0.066 A 
DOCKED: ATOM     16  C   UNL d   1     -13.427   6.312   0.207 -0.06 -0.00    -0.021 A 
DOCKED: ATOM     17  C   UNL d   1     -13.357   7.645   0.612 -0.08 +0.00    +0.000 A 
DOCKED: ATOM     18  C   UNL d   1     -13.980   7.670   1.867 -0.07 +0.01    +0.070 A 
DOCKED: ATOM     19  C   UNL d   1     -12.886   5.635  -1.027 -0.11 +0.00    +0.052 C 
DOCKED: ATOM     20  C   UNL d   1     -14.744   8.935   3.920 -0.03 +0.01    +0.066 A 
DOCKED: ATOM     21  C   UNL d   1     -14.931  10.110   4.643 -0.01 -0.00    -0.025 A 
DOCKED: ATOM     22  C   UNL d   1     -15.583   9.755   5.802 +0.00 -0.01    -0.021 A 
DOCKED: ATOM     23  C   UNL d   1     -15.755   8.368   5.752 +0.00 +0.02    +0.066 A 
DOCKED: ATOM     24  C   UNL d   1     -14.505  11.500   4.248 -0.02 +0.00    +0.051 C 
DOCKED: ATOM     25  N   UNL d   1     -16.048   5.403   5.796 -0.02 -0.11    -0.248 N 
DOCKED: ATOM     26  N   UNL d   1     -15.177   3.975   3.413 -0.04 -0.06    -0.248 N 
DOCKED: ATOM     27  N   UNL d   1     -14.343   6.422   2.259 -0.03 -0.05    -0.248 N 
DOCKED: ATOM     28  N   UNL d   1     -15.204   7.868   4.627 -0.01 -0.06    -0.248 N 
DOCKED: ATOM     29 FE   UNL d   1     -15.189   5.936   4.022 -0.02 +0.00    +0.000 Fe
DOCKED: ATOM     30  O   UNL d   1     -14.225   5.186   4.986 -0.22 +0.00    +0.000 OA
DOCKED: ATOM     31  O   UNL d   1     -13.692   6.405   4.142 +0.02 +0.00    +0.000 OA
DOCKED: ENDROOT
DOCKED: BRANCH   6  32
DOCKED: ATOM     32  C   UNL d   1     -17.391   5.951   9.220 -0.05 +0.03    +0.052 C 
DOCKED: BRANCH  32  33
DOCKED: ATOM     33  C   UNL d   1     -16.271   6.664   9.972 -0.07 +0.09    +0.115 C 
DOCKED: BRANCH  33  34
DOCKED: ATOM     34  C   UNL d   1     -14.919   6.046   9.713 -0.15 +0.19    +0.139 C 
DOCKED: ATOM     35  O   UNL d   1     -14.608   5.014  10.285 -0.09 -1.21    -0.650 OA
DOCKED: BRANCH  34  36
DOCKED: ATOM     36  O   UNL d   1     -14.029   6.625   8.881 +0.04 -1.23    -0.776 OA
DOCKED: ATOM     37  H   UNL d   1     -14.028   7.574   8.714 +0.03 +0.27    +0.167 HD
DOCKED: ENDBRANCH  34  36
DOCKED: ENDBRANCH  33  34
DOCKED: ENDBRANCH  32  33
DOCKED: ENDBRANCH   6  32
DOCKED: BRANCH  22  38
DOCKED: ATOM     38  C   UNL d   1     -15.960  10.692   6.920 +0.00 +0.01    +0.052 C 
DOCKED: BRANCH  38  39
DOCKED: ATOM     39  C   UNL d   1     -14.757  11.097   7.770 -0.03 +0.05    +0.115 C 
DOCKED: BRANCH  39  40
DOCKED: ATOM     40  C   UNL d   1     -14.124   9.921   8.470 +0.06 +0.16    +0.139 C 
DOCKED: ATOM     41  O   UNL d   1     -13.087   9.445   8.039 -0.34 -0.89    -0.650 OA
DOCKED: BRANCH  40  42
DOCKED: ATOM     42  O   UNL d   1     -14.657   9.415   9.599 -0.19 -1.34    -0.776 OA
DOCKED: ATOM     43  H   UNL d   1     -14.833   8.471   9.695 +0.01 +0.29    +0.167 HD
DOCKED: ENDBRANCH  40  42
DOCKED: ENDBRANCH  39  40
DOCKED: ENDBRANCH  38  39
DOCKED: ENDBRANCH  22  38
DOCKED: BRANCH  12  44
DOCKED: ATOM     44  C   UNL d   1     -14.967   1.044   1.030 -0.23 +0.00    +0.004 C 
DOCKED: ATOM     45  C   UNL d   1     -13.944   0.902   0.189 -0.31 +0.00    +0.012 C 
DOCKED: ENDBRANCH  12  44
DOCKED: BRANCH  17  46
DOCKED: ATOM     46  C   UNL d   1     -12.722   8.844  -0.040 -0.09 -0.00    +0.004 C 
DOCKED: ATOM     47  C   UNL d   1     -11.707   9.593   0.412 -0.11 -0.00    +0.012 C 
DOCKED: ENDBRANCH  17  46
DOCKED: TORSDOF 10
DOCKED: TER
DOCKED: ENDMDL
________________________________________________________________________________


	BEGINNING GENETIC ALGORITHM DOCKING 76 of 100
Run: 76 Seed: 1491787724 1368262572 [ Run 76 of 100 GA/GALS ]
Beginning LAMARCKIAN GENETIC ALGORITHM (LGA), with a maximum of 25000000 energy evaluations.

Final-Value: -9.229


	FINAL GENETIC ALGORITHM DOCKED STATE
	_______________________________________________


Detailed state:  trans 7.964 18.351 -8.309 quatxyzw -0.700614 0.288711 0.318856 0.569313 center 8.287 34.468 -0.670 ntor 10 107.8275 -22.4336 134.6677 -6.3192 3.0783 -76.1859 -117.1802 -101.8618 161.3097 122.9668
State:	  7.964  18.351  -8.309  -0.852  0.351  0.388 110.595    107.83  -22.43  134.67   -6.32    3.08  -76.19 -117.18 -101.86  161.31  122.97

DOCKED: MODEL       76
DOCKED: USER    Run = 76
DOCKED: USER    DPF = D:/Protein_go_brrr/autodock/final/mut_Y35F/heme_O2/dock.dpf
DOCKED: USER  
DOCKED: USER    Estimated Free Energy of Binding    =   -4.69 kcal/mol  [=(1)+(2)+(3)-(4)]
DOCKED: USER    Estimated Inhibition Constant, Ki   =  367.18 uM (micromolar)  [Temperature = 298.15 K]
DOCKED: USER    
DOCKED: USER    (1) Final Intermolecular Energy     =   -7.67 kcal/mol
DOCKED: USER        vdW + Hbond + desolv Energy     =   -6.46 kcal/mol
DOCKED: USER        Electrostatic Energy            =   -1.21 kcal/mol
DOCKED: USER    (2) Final Total Internal Energy     =   -1.56 kcal/mol
DOCKED: USER    (3) Torsional Free Energy           =   +2.98 kcal/mol
DOCKED: USER    (4) Unbound System's Energy  [=(2)] =   -1.56 kcal/mol
DOCKED: USER    
DOCKED: USER    
DOCKED: USER    NEWDPF move heme_O2_opt.pdbqt
DOCKED: USER    NEWDPF about 8.287000 34.468000 -0.670000
DOCKED: USER    NEWDPF tran0 7.964093 18.351180 -8.309343
DOCKED: USER    NEWDPF quaternion0 -0.700614 0.288711 0.318856 0.569313
DOCKED: USER    NEWDPF axisangle0 -0.852203 0.351178 0.387846 110.595319
DOCKED: USER    NEWDPF quat0 -0.852203 0.351178 0.387846 110.595319
DOCKED: USER    NEWDPF dihe0 107.83 -22.43 134.67 -6.32 3.08 -76.19 -117.18 -101.86 161.31 122.97 
DOCKED: USER  keepresnum = 1 
DOCKED: USER  
DOCKED: REMARK  10 active torsions:
DOCKED: REMARK  status: ('A' for Active; 'I' for Inactive)
DOCKED: REMARK    1  A    between atoms: C_6  and  C_10 
DOCKED: REMARK    2  A    between atoms: C_10  and  C_11 
DOCKED: REMARK    3  A    between atoms: C_11  and  C_12 
DOCKED: REMARK    4  A    between atoms: C_12  and  O_14 
DOCKED: REMARK    5  A    between atoms: C_17  and  C_20 
DOCKED: REMARK    6  A    between atoms: C_24  and  C_27 
DOCKED: REMARK    7  A    between atoms: C_31  and  C_34 
DOCKED: REMARK    8  A    between atoms: C_34  and  C_35 
DOCKED: REMARK    9  A    between atoms: C_35  and  C_36 
DOCKED: REMARK   10  A    between atoms: C_36  and  O_38 
DOCKED: USER                              x       y       z     vdW  Elec       q    Type
DOCKED: USER                           _______ _______ _______ _____ _____    ______ ____
DOCKED: ROOT
DOCKED: ATOM      1  C   UNL d   1       7.382  20.166  -7.379 -0.05 +0.01    +0.064 A 
DOCKED: ATOM      2  C   UNL d   1       5.360  17.494 -10.745 -0.08 +0.01    +0.064 A 
DOCKED: ATOM      3  C   UNL d   1       9.021  14.384 -10.605 -0.23 -0.00    +0.064 C 
DOCKED: ATOM      4  C   UNL d   1      10.879  16.868  -6.805 -0.07 -0.01    +0.064 A 
DOCKED: ATOM      5  C   UNL d   1       6.532  19.692  -8.305 -0.05 +0.01    +0.066 A 
DOCKED: ATOM      6  C   UNL d   1       5.340  20.324  -8.670 -0.03 -0.00    -0.021 A 
DOCKED: ATOM      7  C   UNL d   1       4.732  19.529  -9.613 -0.03 -0.00    -0.025 A 
DOCKED: ATOM      8  C   UNL d   1       5.594  18.458  -9.834 -0.06 +0.01    +0.066 A 
DOCKED: ATOM      9  C   UNL d   1       3.377  19.799 -10.230 -0.01 +0.00    +0.051 C 
DOCKED: ATOM     10  C   UNL d   1       6.237  16.359 -11.037 -0.12 +0.01    +0.066 A 
DOCKED: ATOM     11  C   UNL d   1       6.027  15.479 -12.105 -0.19 -0.00    -0.021 A 
DOCKED: ATOM     12  C   UNL d   1       7.082  14.586 -12.092 -0.27 +0.00    +0.000 A 
DOCKED: ATOM     13  C   UNL d   1       7.887  14.973 -10.985 -0.15 +0.01    +0.070 A 
DOCKED: ATOM     14  C   UNL d   1       4.882  15.507 -13.112 -0.15 +0.00    +0.052 C 
DOCKED: ATOM     15  C   UNL d   1       9.846  14.723  -9.471 -0.27 -0.00    +0.066 A 
DOCKED: ATOM     16  C   UNL d   1      10.932  13.967  -9.030 -0.34 +0.00    -0.021 A 
DOCKED: ATOM     17  C   UNL d   1      11.477  14.656  -7.946 -0.30 -0.00    +0.000 A 
DOCKED: ATOM     18  C   UNL d   1      10.674  15.796  -7.807 -0.19 -0.00    +0.070 A 
DOCKED: ATOM     19  C   UNL d   1      11.315  12.642  -9.640 -0.27 -0.01    +0.052 C 
DOCKED: ATOM     20  C   UNL d   1      10.102  17.953  -6.616 -0.09 -0.00    +0.066 A 
DOCKED: ATOM     21  C   UNL d   1      10.356  18.939  -5.666 -0.11 +0.00    -0.025 A 
DOCKED: ATOM     22  C   UNL d   1       9.385  19.900  -5.834 -0.07 -0.00    -0.021 A 
DOCKED: ATOM     23  C   UNL d   1       8.560  19.455  -6.871 -0.08 +0.01    +0.066 A 
DOCKED: ATOM     24  C   UNL d   1      11.467  18.960  -4.649 -0.13 -0.03    +0.051 C 
DOCKED: ATOM     25  N   UNL d   1       6.671  18.525  -8.980 -0.05 -0.05    -0.248 N 
DOCKED: ATOM     26  N   UNL d   1       7.363  16.049 -10.346 -0.10 -0.03    -0.248 N 
DOCKED: ATOM     27  N   UNL d   1       9.645  15.782  -8.692 -0.15 -0.00    -0.248 N 
DOCKED: ATOM     28  N   UNL d   1       8.974  18.249  -7.313 -0.08 -0.03    -0.248 N 
DOCKED: ATOM     29 FE   UNL d   1       8.176  17.155  -8.818 -0.03 +0.00    +0.000 Fe
DOCKED: ATOM     30  O   UNL d   1       6.801  16.641  -8.301 -0.36 +0.00    +0.000 OA
DOCKED: ATOM     31  O   UNL d   1       8.117  16.278  -7.514 -0.42 +0.00    +0.000 OA
DOCKED: ENDROOT
DOCKED: BRANCH   6  32
DOCKED: ATOM     32  C   UNL d   1       4.724  21.556  -8.059 -0.01 +0.01    +0.052 C 
DOCKED: BRANCH  32  33
DOCKED: ATOM     33  C   UNL d   1       3.394  21.273  -7.368 -0.02 +0.02    +0.115 C 
DOCKED: BRANCH  33  34
DOCKED: ATOM     34  C   UNL d   1       3.533  20.284  -6.237 +0.05 +0.07    +0.139 C 
DOCKED: ATOM     35  O   UNL d   1       2.610  19.527  -5.981 -0.56 -0.43    -0.650 OA
DOCKED: BRANCH  34  36
DOCKED: ATOM     36  O   UNL d   1       4.647  20.234  -5.479 +0.06 -0.55    -0.776 OA
DOCKED: ATOM     37  H   UNL d   1       4.658  20.543  -4.565 +0.01 +0.09    +0.167 HD
DOCKED: ENDBRANCH  34  36
DOCKED: ENDBRANCH  33  34
DOCKED: ENDBRANCH  32  33
DOCKED: ENDBRANCH   6  32
DOCKED: BRANCH  22  38
DOCKED: ATOM     38  C   UNL d   1       9.227  21.143  -4.997 -0.03 -0.00    +0.052 C 
DOCKED: BRANCH  38  39
DOCKED: ATOM     39  C   UNL d   1       7.775  21.393  -4.595 -0.03 +0.01    +0.115 C 
DOCKED: BRANCH  39  40
DOCKED: ATOM     40  C   UNL d   1       7.325  20.493  -3.471 -0.09 +0.03    +0.139 C 
DOCKED: ATOM     41  O   UNL d   1       7.795  20.638  -2.354 +0.03 -0.03    -0.650 OA
DOCKED: BRANCH  40  42
DOCKED: ATOM     42  O   UNL d   1       6.373  19.560  -3.664 +0.04 -0.45    -0.776 OA
DOCKED: ATOM     43  H   UNL d   1       5.761  19.611  -4.408 +0.03 +0.14    +0.167 HD
DOCKED: ENDBRANCH  40  42
DOCKED: ENDBRANCH  39  40
DOCKED: ENDBRANCH  38  39
DOCKED: ENDBRANCH  22  38
DOCKED: BRANCH  12  44
DOCKED: ATOM     44  C   UNL d   1       7.208  13.476 -13.115 -0.32 +0.00    +0.004 C 
DOCKED: ATOM     45  C   UNL d   1       6.280  12.594 -13.485 -0.31 +0.00    +0.012 C 
DOCKED: ENDBRANCH  12  44
DOCKED: BRANCH  17  46
DOCKED: ATOM     46  C   UNL d   1      12.618  14.308  -7.027 -0.36 -0.00    +0.004 C 
DOCKED: ATOM     47  C   UNL d   1      13.241  13.131  -6.888 -0.40 -0.00    +0.012 C 
DOCKED: ENDBRANCH  17  46
DOCKED: TORSDOF 10
DOCKED: TER
DOCKED: ENDMDL
________________________________________________________________________________


	BEGINNING GENETIC ALGORITHM DOCKING 77 of 100
Run: 77 Seed: 1853187309 1258889333 [ Run 77 of 100 GA/GALS ]
Beginning LAMARCKIAN GENETIC ALGORITHM (LGA), with a maximum of 25000000 energy evaluations.

Final-Value: -9.082


	FINAL GENETIC ALGORITHM DOCKED STATE
	_______________________________________________


Detailed state:  trans 0.793 2.475 -14.245 quatxyzw 0.883691 0.033208 -0.272529 0.379098 center 8.287 34.468 -0.670 ntor 10 123.9506 26.1055 -76.8546 117.9544 -110.5301 119.9009 156.5736 -177.7429 9.0436 -15.1394
State:	  0.793   2.475 -14.245   0.955  0.036 -0.295 135.444    123.95   26.11  -76.85  117.95 -110.53  119.90  156.57 -177.74    9.04  -15.14

DOCKED: MODEL       77
DOCKED: USER    Run = 77
DOCKED: USER    DPF = D:/Protein_go_brrr/autodock/final/mut_Y35F/heme_O2/dock.dpf
DOCKED: USER  
DOCKED: USER    Estimated Free Energy of Binding    =   -4.31 kcal/mol  [=(1)+(2)+(3)-(4)]
DOCKED: USER    Estimated Inhibition Constant, Ki   =  695.30 uM (micromolar)  [Temperature = 298.15 K]
DOCKED: USER    
DOCKED: USER    (1) Final Intermolecular Energy     =   -7.29 kcal/mol
DOCKED: USER        vdW + Hbond + desolv Energy     =   -6.65 kcal/mol
DOCKED: USER        Electrostatic Energy            =   -0.65 kcal/mol
DOCKED: USER    (2) Final Total Internal Energy     =   -1.79 kcal/mol
DOCKED: USER    (3) Torsional Free Energy           =   +2.98 kcal/mol
DOCKED: USER    (4) Unbound System's Energy  [=(2)] =   -1.79 kcal/mol
DOCKED: USER    
DOCKED: USER    
DOCKED: USER    NEWDPF move heme_O2_opt.pdbqt
DOCKED: USER    NEWDPF about 8.287000 34.468000 -0.670000
DOCKED: USER    NEWDPF tran0 0.792976 2.475393 -14.245041
DOCKED: USER    NEWDPF quaternion0 0.883691 0.033208 -0.272529 0.379098
DOCKED: USER    NEWDPF axisangle0 0.954974 0.035887 -0.294513 135.444308
DOCKED: USER    NEWDPF quat0 0.954974 0.035887 -0.294513 135.444308
DOCKED: USER    NEWDPF dihe0 123.95 26.11 -76.85 117.95 -110.53 119.90 156.57 -177.74 9.04 -15.14 
DOCKED: USER  keepresnum = 1 
DOCKED: USER  
DOCKED: REMARK  10 active torsions:
DOCKED: REMARK  status: ('A' for Active; 'I' for Inactive)
DOCKED: REMARK    1  A    between atoms: C_6  and  C_10 
DOCKED: REMARK    2  A    between atoms: C_10  and  C_11 
DOCKED: REMARK    3  A    between atoms: C_11  and  C_12 
DOCKED: REMARK    4  A    between atoms: C_12  and  O_14 
DOCKED: REMARK    5  A    between atoms: C_17  and  C_20 
DOCKED: REMARK    6  A    between atoms: C_24  and  C_27 
DOCKED: REMARK    7  A    between atoms: C_31  and  C_34 
DOCKED: REMARK    8  A    between atoms: C_34  and  C_35 
DOCKED: REMARK    9  A    between atoms: C_35  and  C_36 
DOCKED: REMARK   10  A    between atoms: C_36  and  O_38 
DOCKED: USER                              x       y       z     vdW  Elec       q    Type
DOCKED: USER                           _______ _______ _______ _____ _____    ______ ____
DOCKED: ROOT
DOCKED: ATOM      1  C   UNL d   1      -0.479   1.030 -13.354 -0.14 +0.00    +0.064 A 
DOCKED: ATOM      2  C   UNL d   1      -0.956   5.696 -14.105 -0.16 -0.00    +0.064 A 
DOCKED: ATOM      3  C   UNL d   1       3.415   5.917 -16.089 -0.24 -0.01    +0.064 C 
DOCKED: ATOM      4  C   UNL d   1       3.725   1.033 -15.756 -0.08 +0.00    +0.064 A 
DOCKED: ATOM      5  C   UNL d   1      -0.966   2.281 -13.398 -0.15 +0.00    +0.066 A 
DOCKED: ATOM      6  C   UNL d   1      -2.216   2.652 -12.894 -0.14 -0.00    -0.021 A 
DOCKED: ATOM      7  C   UNL d   1      -2.373   3.994 -13.150 -0.14 -0.00    -0.025 A 
DOCKED: ATOM      8  C   UNL d   1      -1.195   4.416 -13.760 -0.15 -0.00    +0.066 A 
DOCKED: ATOM      9  C   UNL d   1      -3.619   4.794 -12.838 -0.11 +0.00    +0.051 C 
DOCKED: ATOM     10  C   UNL d   1       0.268   6.202 -14.727 -0.21 -0.01    +0.066 A 
DOCKED: ATOM     11  C   UNL d   1       0.530   7.564 -14.914 -0.25 +0.00    -0.021 A 
DOCKED: ATOM     12  C   UNL d   1       1.793   7.649 -15.469 -0.24 -0.00    +0.000 A 
DOCKED: ATOM     13  C   UNL d   1       2.236   6.304 -15.602 -0.18 -0.01    +0.070 A 
DOCKED: ATOM     14  C   UNL d   1      -0.376   8.735 -14.554 -0.22 -0.00    +0.052 C 
DOCKED: ATOM     15  C   UNL d   1       3.887   4.566 -16.274 -0.21 -0.00    +0.066 A 
DOCKED: ATOM     16  C   UNL d   1       5.063   4.223 -16.940 -0.17 +0.00    -0.021 A 
DOCKED: ATOM     17  C   UNL d   1       5.172   2.835 -16.858 -0.14 -0.00    +0.000 A 
DOCKED: ATOM     18  C   UNL d   1       4.040   2.430 -16.137 -0.15 -0.00    +0.070 A 
DOCKED: ATOM     19  C   UNL d   1       5.939   5.235 -17.635 -0.11 -0.00    +0.052 C 
DOCKED: ATOM     20  C   UNL d   1       2.627   0.605 -15.103 -0.08 +0.01    +0.066 A 
DOCKED: ATOM     21  C   UNL d   1       2.394  -0.723 -14.756 -0.10 -0.00    -0.025 A 
DOCKED: ATOM     22  C   UNL d   1       1.213  -0.739 -14.047 -0.12 -0.00    -0.021 A 
DOCKED: ATOM     23  C   UNL d   1       0.759   0.583 -14.003 -0.13 +0.00    +0.066 A 
DOCKED: ATOM     24  C   UNL d   1       3.251  -1.917 -15.088 -0.10 +0.01    +0.051 C 
DOCKED: ATOM     25  N   UNL d   1      -0.356   3.347 -13.972 -0.07 -0.00    -0.248 N 
DOCKED: ATOM     26  N   UNL d   1       1.300   5.430 -15.153 +0.01 +0.02    -0.248 N 
DOCKED: ATOM     27  N   UNL d   1       3.234   3.485 -15.856 -0.08 +0.00    -0.248 N 
DOCKED: ATOM     28  N   UNL d   1       1.599   1.390 -14.685 -0.08 -0.01    -0.248 N 
DOCKED: ATOM     29 FE   UNL d   1       1.453   3.395 -14.919 -0.04 +0.00    +0.000 Fe
DOCKED: ATOM     30  O   UNL d   1       0.241   3.635 -15.866 -0.11 -0.00    +0.000 OA
DOCKED: ATOM     31  O   UNL d   1       1.450   2.751 -16.354 -0.11 -0.00    +0.000 OA
DOCKED: ENDROOT
DOCKED: BRANCH   6  32
DOCKED: ATOM     32  C   UNL d   1      -3.281   1.756 -12.317 -0.12 +0.00    +0.052 C 
DOCKED: BRANCH  32  33
DOCKED: ATOM     33  C   UNL d   1      -3.184   1.620 -10.801 -0.26 +0.01    +0.115 C 
DOCKED: BRANCH  33  34
DOCKED: ATOM     34  C   UNL d   1      -1.783   1.855 -10.291 -0.39 +0.01    +0.139 C 
DOCKED: ATOM     35  O   UNL d   1      -1.483   2.947  -9.835 -0.03 -0.06    -0.650 OA
DOCKED: BRANCH  34  36
DOCKED: ATOM     36  O   UNL d   1      -0.841   0.892 -10.354 +0.03 -0.05    -0.776 OA
DOCKED: ATOM     37  H   UNL d   1       0.005   1.033 -10.794 +0.10 +0.01    +0.167 HD
DOCKED: ENDBRANCH  34  36
DOCKED: ENDBRANCH  33  34
DOCKED: ENDBRANCH  32  33
DOCKED: ENDBRANCH   6  32
DOCKED: BRANCH  22  38
DOCKED: ATOM     38  C   UNL d   1       0.533  -1.968 -13.502 -0.16 +0.01    +0.052 C 
DOCKED: BRANCH  38  39
DOCKED: ATOM     39  C   UNL d   1       1.046  -2.349 -12.115 -0.13 +0.05    +0.115 C 
DOCKED: BRANCH  39  40
DOCKED: ATOM     40  C   UNL d   1       2.094  -1.393 -11.605 -0.34 +0.06    +0.139 C 
DOCKED: ATOM     41  O   UNL d   1       3.277  -1.653 -11.755 -0.50 -0.55    -0.650 OA
DOCKED: BRANCH  40  42
DOCKED: ATOM     42  O   UNL d   1       1.749  -0.225 -11.028 +0.04 -0.17    -0.776 OA
DOCKED: ATOM     43  H   UNL d   1       0.914  -0.123 -10.556 +0.11 +0.03    +0.167 HD
DOCKED: ENDBRANCH  40  42
DOCKED: ENDBRANCH  39  40
DOCKED: ENDBRANCH  38  39
DOCKED: ENDBRANCH  22  38
DOCKED: BRANCH  12  44
DOCKED: ATOM     44  C   UNL d   1       2.433   8.978 -15.810 -0.23 -0.00    +0.004 C 
DOCKED: ATOM     45  C   UNL d   1       3.324   9.666 -15.097 -0.33 -0.00    +0.012 C 
DOCKED: ENDBRANCH  12  44
DOCKED: BRANCH  17  46
DOCKED: ATOM     46  C   UNL d   1       6.190   1.888 -17.435 -0.09 -0.00    +0.004 C 
DOCKED: ATOM     47  C   UNL d   1       7.108   1.162 -16.785 -0.13 -0.00    +0.012 C 
DOCKED: ENDBRANCH  17  46
DOCKED: TORSDOF 10
DOCKED: TER
DOCKED: ENDMDL
________________________________________________________________________________


	BEGINNING GENETIC ALGORITHM DOCKING 78 of 100
Run: 78 Seed: 2055407713 1695020338 [ Run 78 of 100 GA/GALS ]
Beginning LAMARCKIAN GENETIC ALGORITHM (LGA), with a maximum of 25000000 energy evaluations.

Final-Value: -11.023


	FINAL GENETIC ALGORITHM DOCKED STATE
	_______________________________________________


Detailed state:  trans 15.516 7.804 4.917 quatxyzw -0.381550 -0.248240 -0.513861 0.727147 center 8.287 34.468 -0.670 ntor 10 91.6396 112.0385 -66.3037 125.2402 -156.3073 -45.1556 -57.4033 98.9008 178.4005 -177.0804
State:	 15.516   7.804   4.917  -0.556 -0.362 -0.749 86.705     91.64  112.04  -66.30  125.24 -156.31  -45.16  -57.40   98.90  178.40 -177.08

DOCKED: MODEL       78
DOCKED: USER    Run = 78
DOCKED: USER    DPF = D:/Protein_go_brrr/autodock/final/mut_Y35F/heme_O2/dock.dpf
DOCKED: USER  
DOCKED: USER    Estimated Free Energy of Binding    =   -5.49 kcal/mol  [=(1)+(2)+(3)-(4)]
DOCKED: USER    Estimated Inhibition Constant, Ki   =   95.02 uM (micromolar)  [Temperature = 298.15 K]
DOCKED: USER    
DOCKED: USER    (1) Final Intermolecular Energy     =   -8.47 kcal/mol
DOCKED: USER        vdW + Hbond + desolv Energy     =   -5.77 kcal/mol
DOCKED: USER        Electrostatic Energy            =   -2.70 kcal/mol
DOCKED: USER    (2) Final Total Internal Energy     =   -2.55 kcal/mol
DOCKED: USER    (3) Torsional Free Energy           =   +2.98 kcal/mol
DOCKED: USER    (4) Unbound System's Energy  [=(2)] =   -2.55 kcal/mol
DOCKED: USER    
DOCKED: USER    
DOCKED: USER    NEWDPF move heme_O2_opt.pdbqt
DOCKED: USER    NEWDPF about 8.287000 34.468000 -0.670000
DOCKED: USER    NEWDPF tran0 15.515941 7.803939 4.917372
DOCKED: USER    NEWDPF quaternion0 -0.381550 -0.248240 -0.513861 0.727147
DOCKED: USER    NEWDPF axisangle0 -0.555805 -0.361612 -0.748543 86.704529
DOCKED: USER    NEWDPF quat0 -0.555805 -0.361612 -0.748543 86.704529
DOCKED: USER    NEWDPF dihe0 91.64 112.04 -66.30 125.24 -156.31 -45.16 -57.40 98.90 178.40 -177.08 
DOCKED: USER  keepresnum = 1 
DOCKED: USER  
DOCKED: REMARK  10 active torsions:
DOCKED: REMARK  status: ('A' for Active; 'I' for Inactive)
DOCKED: REMARK    1  A    between atoms: C_6  and  C_10 
DOCKED: REMARK    2  A    between atoms: C_10  and  C_11 
DOCKED: REMARK    3  A    between atoms: C_11  and  C_12 
DOCKED: REMARK    4  A    between atoms: C_12  and  O_14 
DOCKED: REMARK    5  A    between atoms: C_17  and  C_20 
DOCKED: REMARK    6  A    between atoms: C_24  and  C_27 
DOCKED: REMARK    7  A    between atoms: C_31  and  C_34 
DOCKED: REMARK    8  A    between atoms: C_34  and  C_35 
DOCKED: REMARK    9  A    between atoms: C_35  and  C_36 
DOCKED: REMARK   10  A    between atoms: C_36  and  O_38 
DOCKED: USER                              x       y       z     vdW  Elec       q    Type
DOCKED: USER                           _______ _______ _______ _____ _____    ______ ____
DOCKED: ROOT
DOCKED: ATOM      1  C   UNL d   1      13.926   6.401   4.878 -0.16 +0.02    +0.064 A 
DOCKED: ATOM      2  C   UNL d   1      18.648   5.897   4.877 -0.15 +0.04    +0.064 A 
DOCKED: ATOM      3  C   UNL d   1      19.249  10.665   4.919 -0.07 +0.02    +0.064 C 
DOCKED: ATOM      4  C   UNL d   1      14.396  11.191   5.404 -0.09 +0.01    +0.064 A 
DOCKED: ATOM      5  C   UNL d   1      15.161   5.875   4.876 -0.17 +0.02    +0.066 A 
DOCKED: ATOM      6  C   UNL d   1      15.428   4.503   4.840 -0.27 -0.01    -0.021 A 
DOCKED: ATOM      7  C   UNL d   1      16.795   4.355   4.884 -0.21 -0.01    -0.025 A 
DOCKED: ATOM      8  C   UNL d   1      17.326   5.642   4.896 -0.18 +0.03    +0.066 A 
DOCKED: ATOM      9  C   UNL d   1      17.520   3.028   4.940 -0.22 +0.02    +0.051 C 
DOCKED: ATOM     10  C   UNL d   1      19.265   7.225   4.866 -0.16 +0.05    +0.066 A 
DOCKED: ATOM     11  C   UNL d   1      20.636   7.435   4.680 -0.11 -0.02    -0.021 A 
DOCKED: ATOM     12  C   UNL d   1      20.827   8.804   4.672 -0.12 +0.00    +0.000 A 
DOCKED: ATOM     13  C   UNL d   1      19.534   9.364   4.869 -0.12 +0.03    +0.070 A 
DOCKED: ATOM     14  C   UNL d   1      21.715   6.375   4.492 -0.08 +0.05    +0.052 C 
DOCKED: ATOM     15  C   UNL d   1      17.961  11.272   5.152 -0.03 +0.02    +0.066 A 
DOCKED: ATOM     16  C   UNL d   1      17.754  12.636   5.357 -0.06 -0.00    -0.021 A 
DOCKED: ATOM     17  C   UNL d   1      16.377  12.809   5.499 -0.06 +0.00    +0.000 A 
DOCKED: ATOM     18  C   UNL d   1      15.840  11.521   5.365 -0.07 +0.02    +0.070 A 
DOCKED: ATOM     19  C   UNL d   1      18.881  13.633   5.455 -0.03 +0.00    +0.052 C 
DOCKED: ATOM     20  C   UNL d   1      13.849   9.962   5.322 -0.11 +0.01    +0.066 A 
DOCKED: ATOM     21  C   UNL d   1      12.479   9.714   5.347 -0.14 -0.00    -0.025 A 
DOCKED: ATOM     22  C   UNL d   1      12.326   8.357   5.171 -0.19 -0.00    -0.021 A 
DOCKED: ATOM     23  C   UNL d   1      13.613   7.823   5.063 -0.17 +0.01    +0.066 A 
DOCKED: ATOM     24  C   UNL d   1      11.374  10.721   5.532 -0.11 +0.00    +0.051 C 
DOCKED: ATOM     25  N   UNL d   1      16.318   6.576   4.958 -0.11 -0.08    -0.248 N 
DOCKED: ATOM     26  N   UNL d   1      18.591   8.396   4.991 -0.11 -0.12    -0.248 N 
DOCKED: ATOM     27  N   UNL d   1      16.820  10.592   5.231 -0.04 -0.09    -0.248 N 
DOCKED: ATOM     28  N   UNL d   1      14.538   8.796   5.201 -0.09 -0.06    -0.248 N 
DOCKED: ATOM     29 FE   UNL d   1      16.550   8.600   5.097 -0.04 +0.00    +0.000 Fe
DOCKED: ATOM     30  O   UNL d   1      16.978   7.829   6.379 -0.07 +0.00    +0.000 OA
DOCKED: ATOM     31  O   UNL d   1      16.206   9.196   6.512 -0.07 +0.00    +0.000 OA
DOCKED: ENDROOT
DOCKED: BRANCH   6  32
DOCKED: ATOM     32  C   UNL d   1      14.438   3.369   4.902 -0.41 +0.02    +0.052 C 
DOCKED: BRANCH  32  33
DOCKED: ATOM     33  C   UNL d   1      14.293   2.785   6.304 -0.23 +0.05    +0.115 C 
DOCKED: BRANCH  33  34
DOCKED: ATOM     34  C   UNL d   1      12.880   2.886   6.825 -0.21 +0.10    +0.139 C 
DOCKED: ATOM     35  O   UNL d   1      11.957   2.453   6.153 -0.07 -0.48    -0.650 OA
DOCKED: BRANCH  34  36
DOCKED: ATOM     36  O   UNL d   1      12.608   3.470   8.010 -0.10 -1.09    -0.776 OA
DOCKED: ATOM     37  H   UNL d   1      12.390   4.407   8.079 +0.03 +0.28    +0.167 HD
DOCKED: ENDBRANCH  34  36
DOCKED: ENDBRANCH  33  34
DOCKED: ENDBRANCH  32  33
DOCKED: ENDBRANCH   6  32
DOCKED: BRANCH  22  38
DOCKED: ATOM     38  C   UNL d   1      11.015   7.614   5.172 -0.20 +0.01    +0.052 C 
DOCKED: BRANCH  38  39
DOCKED: ATOM     39  C   UNL d   1      10.437   7.455   6.577 -0.17 +0.05    +0.115 C 
DOCKED: BRANCH  39  40
DOCKED: ATOM     40  C   UNL d   1      11.044   6.292   7.321 -0.15 +0.14    +0.139 C 
DOCKED: ATOM     41  O   UNL d   1      11.932   6.490   8.135 -0.07 -0.62    -0.650 OA
DOCKED: BRANCH  40  42
DOCKED: ATOM     42  O   UNL d   1      10.588   5.038   7.142 -0.43 -1.33    -0.776 OA
DOCKED: ATOM     43  H   UNL d   1      11.139   4.352   6.747 +0.04 +0.23    +0.167 HD
DOCKED: ENDBRANCH  40  42
DOCKED: ENDBRANCH  39  40
DOCKED: ENDBRANCH  38  39
DOCKED: ENDBRANCH  22  38
DOCKED: BRANCH  12  44
DOCKED: ATOM     44  C   UNL d   1      22.196   9.424   4.484 -0.07 +0.00    +0.004 C 
DOCKED: ATOM     45  C   UNL d   1      22.654  10.090   3.424 -0.07 +0.01    +0.012 C 
DOCKED: ENDBRANCH  12  44
DOCKED: BRANCH  17  46
DOCKED: ATOM     46  C   UNL d   1      15.562  14.039   5.797 -0.03 +0.00    +0.004 C 
DOCKED: ATOM     47  C   UNL d   1      14.620  14.613   5.038 -0.04 -0.00    +0.012 C 
DOCKED: ENDBRANCH  17  46
DOCKED: TORSDOF 10
DOCKED: TER
DOCKED: ENDMDL
________________________________________________________________________________


	BEGINNING GENETIC ALGORITHM DOCKING 79 of 100
Run: 79 Seed: 939603427 892275273 [ Run 79 of 100 GA/GALS ]
Beginning LAMARCKIAN GENETIC ALGORITHM (LGA), with a maximum of 25000000 energy evaluations.

Final-Value: -11.652


	FINAL GENETIC ALGORITHM DOCKED STATE
	_______________________________________________


Detailed state:  trans 15.526 7.217 5.001 quatxyzw -0.398326 -0.230986 -0.462355 0.757766 center 8.287 34.468 -0.670 ntor 10 144.4250 -105.3132 -39.9858 119.9067 -0.3616 128.4956 -99.5766 76.2104 -174.5473 -162.6433
State:	 15.526   7.217   5.001  -0.610 -0.354 -0.709 81.465    144.43 -105.31  -39.99  119.91   -0.36  128.50  -99.58   76.21 -174.55 -162.64

DOCKED: MODEL       79
DOCKED: USER    Run = 79
DOCKED: USER    DPF = D:/Protein_go_brrr/autodock/final/mut_Y35F/heme_O2/dock.dpf
DOCKED: USER  
DOCKED: USER    Estimated Free Energy of Binding    =   -6.18 kcal/mol  [=(1)+(2)+(3)-(4)]
DOCKED: USER    Estimated Inhibition Constant, Ki   =   29.28 uM (micromolar)  [Temperature = 298.15 K]
DOCKED: USER    
DOCKED: USER    (1) Final Intermolecular Energy     =   -9.17 kcal/mol
DOCKED: USER        vdW + Hbond + desolv Energy     =   -6.32 kcal/mol
DOCKED: USER        Electrostatic Energy            =   -2.85 kcal/mol
DOCKED: USER    (2) Final Total Internal Energy     =   -2.48 kcal/mol
DOCKED: USER    (3) Torsional Free Energy           =   +2.98 kcal/mol
DOCKED: USER    (4) Unbound System's Energy  [=(2)] =   -2.48 kcal/mol
DOCKED: USER    
DOCKED: USER    
DOCKED: USER    NEWDPF move heme_O2_opt.pdbqt
DOCKED: USER    NEWDPF about 8.287000 34.468000 -0.670000
DOCKED: USER    NEWDPF tran0 15.525848 7.216956 5.000899
DOCKED: USER    NEWDPF quaternion0 -0.398326 -0.230986 -0.462355 0.757766
DOCKED: USER    NEWDPF axisangle0 -0.610436 -0.353987 -0.708562 81.464651
DOCKED: USER    NEWDPF quat0 -0.610436 -0.353987 -0.708562 81.464651
DOCKED: USER    NEWDPF dihe0 144.43 -105.31 -39.99 119.91 -0.36 128.50 -99.58 76.21 -174.55 -162.64 
DOCKED: USER  keepresnum = 1 
DOCKED: USER  
DOCKED: REMARK  10 active torsions:
DOCKED: REMARK  status: ('A' for Active; 'I' for Inactive)
DOCKED: REMARK    1  A    between atoms: C_6  and  C_10 
DOCKED: REMARK    2  A    between atoms: C_10  and  C_11 
DOCKED: REMARK    3  A    between atoms: C_11  and  C_12 
DOCKED: REMARK    4  A    between atoms: C_12  and  O_14 
DOCKED: REMARK    5  A    between atoms: C_17  and  C_20 
DOCKED: REMARK    6  A    between atoms: C_24  and  C_27 
DOCKED: REMARK    7  A    between atoms: C_31  and  C_34 
DOCKED: REMARK    8  A    between atoms: C_34  and  C_35 
DOCKED: REMARK    9  A    between atoms: C_35  and  C_36 
DOCKED: REMARK   10  A    between atoms: C_36  and  O_38 
DOCKED: USER                              x       y       z     vdW  Elec       q    Type
DOCKED: USER                           _______ _______ _______ _____ _____    ______ ____
DOCKED: ROOT
DOCKED: ATOM      1  C   UNL d   1      13.769   6.028   4.998 -0.21 +0.02    +0.064 A 
DOCKED: ATOM      2  C   UNL d   1      18.389   4.926   4.926 -0.15 +0.03    +0.064 A 
DOCKED: ATOM      3  C   UNL d   1      19.593   9.578   4.921 -0.13 +0.03    +0.064 C 
DOCKED: ATOM      4  C   UNL d   1      14.855  10.722   5.478 -0.07 +0.01    +0.064 A 
DOCKED: ATOM      5  C   UNL d   1      14.927   5.349   4.981 -0.20 +0.02    +0.066 A 
DOCKED: ATOM      6  C   UNL d   1      15.016   3.954   4.951 -0.30 -0.01    -0.021 A 
DOCKED: ATOM      7  C   UNL d   1      16.353   3.633   4.974 -0.23 -0.01    -0.025 A 
DOCKED: ATOM      8  C   UNL d   1      17.045   4.841   4.968 -0.18 +0.02    +0.066 A 
DOCKED: ATOM      9  C   UNL d   1      16.905   2.225   5.029 -0.24 +0.01    +0.051 C 
DOCKED: ATOM     10  C   UNL d   1      19.169   6.164   4.895 -0.13 +0.04    +0.066 A 
DOCKED: ATOM     11  C   UNL d   1      20.552   6.196   4.686 -0.02 -0.02    -0.021 A 
DOCKED: ATOM     12  C   UNL d   1      20.916   7.530   4.664 -0.11 +0.00    +0.000 A 
DOCKED: ATOM     13  C   UNL d   1      19.709   8.251   4.877 -0.14 +0.05    +0.070 A 
DOCKED: ATOM     14  C   UNL d   1      21.484   5.006   4.489 -0.04 +0.04    +0.052 C 
DOCKED: ATOM     15  C   UNL d   1      18.396  10.346   5.170 -0.06 +0.02    +0.066 A 
DOCKED: ATOM     16  C   UNL d   1      18.369  11.726   5.368 -0.06 -0.00    -0.021 A 
DOCKED: ATOM     17  C   UNL d   1      17.028  12.074   5.530 -0.06 +0.00    +0.000 A 
DOCKED: ATOM     18  C   UNL d   1      16.329  10.865   5.415 -0.00 +0.02    +0.070 A 
DOCKED: ATOM     19  C   UNL d   1      19.616  12.571   5.439 -0.04 +0.01    +0.052 C 
DOCKED: ATOM     20  C   UNL d   1      14.155   9.572   5.415 -0.10 +0.01    +0.066 A 
DOCKED: ATOM     21  C   UNL d   1      12.765   9.502   5.463 -0.12 -0.00    -0.025 A 
DOCKED: ATOM     22  C   UNL d   1      12.437   8.174   5.300 -0.18 -0.00    -0.021 A 
DOCKED: ATOM     23  C   UNL d   1      13.644   7.479   5.177 -0.18 +0.02    +0.066 A 
DOCKED: ATOM     24  C   UNL d   1      11.800  10.642   5.658 -0.14 +0.00    +0.051 C 
DOCKED: ATOM     25  N   UNL d   1      16.166   5.897   5.038 -0.10 -0.08    -0.248 N 
DOCKED: ATOM     26  N   UNL d   1      18.652   7.412   5.021 -0.11 -0.14    -0.248 N 
DOCKED: ATOM     27  N   UNL d   1      17.180   9.817   5.272 -0.06 -0.10    -0.248 N 
DOCKED: ATOM     28  N   UNL d   1      14.687   8.327   5.292 -0.09 -0.06    -0.248 N 
DOCKED: ATOM     29 FE   UNL d   1      16.655   7.876   5.158 -0.03 +0.00    +0.000 Fe
DOCKED: ATOM     30  O   UNL d   1      17.004   7.064   6.439 -0.07 +0.00    +0.000 OA
DOCKED: ATOM     31  O   UNL d   1      16.414   8.519   6.573 -0.06 +0.00    +0.000 OA
DOCKED: ENDROOT
DOCKED: BRANCH   6  32
DOCKED: ATOM     32  C   UNL d   1      13.891   2.955   5.037 -0.42 +0.02    +0.052 C 
DOCKED: BRANCH  32  33
DOCKED: ATOM     33  C   UNL d   1      13.583   2.533   6.470 -0.30 +0.06    +0.115 C 
DOCKED: BRANCH  33  34
DOCKED: ATOM     34  C   UNL d   1      12.775   3.567   7.214 -0.19 +0.13    +0.139 C 
DOCKED: ATOM     35  O   UNL d   1      12.884   3.660   8.426 -0.22 -0.95    -0.650 OA
DOCKED: BRANCH  34  36
DOCKED: ATOM     36  O   UNL d   1      11.908   4.377   6.572 -0.28 -0.87    -0.776 OA
DOCKED: ATOM     37  H   UNL d   1      11.078   4.658   6.974 +0.03 +0.26    +0.167 HD
DOCKED: ENDBRANCH  34  36
DOCKED: ENDBRANCH  33  34
DOCKED: ENDBRANCH  32  33
DOCKED: ENDBRANCH   6  32
DOCKED: BRANCH  22  38
DOCKED: ATOM     38  C   UNL d   1      11.042   7.605   5.328 -0.20 +0.01    +0.052 C 
DOCKED: BRANCH  38  39
DOCKED: ATOM     39  C   UNL d   1      10.341   7.848   6.662 -0.20 +0.04    +0.115 C 
DOCKED: BRANCH  39  40
DOCKED: ATOM     40  C   UNL d   1      10.269   6.604   7.512 -0.13 +0.14    +0.139 C 
DOCKED: ATOM     41  O   UNL d   1       9.340   5.826   7.370 -0.33 -0.80    -0.650 OA
DOCKED: BRANCH  40  42
DOCKED: ATOM     42  O   UNL d   1      11.243   6.306   8.393 -0.21 -1.10    -0.776 OA
DOCKED: ATOM     43  H   UNL d   1      11.910   5.636   8.201 +0.02 +0.25    +0.167 HD
DOCKED: ENDBRANCH  40  42
DOCKED: ENDBRANCH  39  40
DOCKED: ENDBRANCH  38  39
DOCKED: ENDBRANCH  22  38
DOCKED: BRANCH  12  44
DOCKED: ATOM     44  C   UNL d   1      22.349   7.969   4.449 -0.08 +0.00    +0.004 C 
DOCKED: ATOM     45  C   UNL d   1      22.798   8.944   3.659 -0.08 +0.01    +0.012 C 
DOCKED: ENDBRANCH  12  44
DOCKED: BRANCH  17  46
DOCKED: ATOM     46  C   UNL d   1      16.381  13.400   5.831 -0.04 +0.00    +0.004 C 
DOCKED: ATOM     47  C   UNL d   1      15.584  14.132   5.042 -0.05 -0.00    +0.012 C 
DOCKED: ENDBRANCH  17  46
DOCKED: TORSDOF 10
DOCKED: TER
DOCKED: ENDMDL
________________________________________________________________________________


	BEGINNING GENETIC ALGORITHM DOCKING 80 of 100
Run: 80 Seed: 2013564727 741968348 [ Run 80 of 100 GA/GALS ]
Beginning LAMARCKIAN GENETIC ALGORITHM (LGA), with a maximum of 25000000 energy evaluations.

Final-Value: -9.328


	FINAL GENETIC ALGORITHM DOCKED STATE
	_______________________________________________


Detailed state:  trans 10.011 15.828 -10.080 quatxyzw 0.728238 -0.306692 -0.040780 -0.611511 center 8.287 34.468 -0.670 ntor 10 37.5412 41.8278 52.6266 -18.8524 -72.8484 -42.8342 102.3988 104.9032 6.1623 166.4889
State:	 10.011  15.828 -10.080   0.920 -0.388 -0.052 -104.602     37.54   41.83   52.63  -18.85  -72.85  -42.83  102.40  104.90    6.16  166.49

DOCKED: MODEL       80
DOCKED: USER    Run = 80
DOCKED: USER    DPF = D:/Protein_go_brrr/autodock/final/mut_Y35F/heme_O2/dock.dpf
DOCKED: USER  
DOCKED: USER    Estimated Free Energy of Binding    =   -4.37 kcal/mol  [=(1)+(2)+(3)-(4)]
DOCKED: USER    Estimated Inhibition Constant, Ki   =  621.54 uM (micromolar)  [Temperature = 298.15 K]
DOCKED: USER    
DOCKED: USER    (1) Final Intermolecular Energy     =   -7.36 kcal/mol
DOCKED: USER        vdW + Hbond + desolv Energy     =   -6.81 kcal/mol
DOCKED: USER        Electrostatic Energy            =   -0.55 kcal/mol
DOCKED: USER    (2) Final Total Internal Energy     =   -1.97 kcal/mol
DOCKED: USER    (3) Torsional Free Energy           =   +2.98 kcal/mol
DOCKED: USER    (4) Unbound System's Energy  [=(2)] =   -1.97 kcal/mol
DOCKED: USER    
DOCKED: USER    
DOCKED: USER    NEWDPF move heme_O2_opt.pdbqt
DOCKED: USER    NEWDPF about 8.287000 34.468000 -0.670000
DOCKED: USER    NEWDPF tran0 10.010573 15.828469 -10.080453
DOCKED: USER    NEWDPF quaternion0 0.728238 -0.306692 -0.040780 -0.611511
DOCKED: USER    NEWDPF axisangle0 0.920381 -0.387611 -0.051539 -104.602299
DOCKED: USER    NEWDPF quat0 0.920381 -0.387611 -0.051539 -104.602299
DOCKED: USER    NEWDPF dihe0 37.54 41.83 52.63 -18.85 -72.85 -42.83 102.40 104.90 6.16 166.49 
DOCKED: USER  keepresnum = 1 
DOCKED: USER  
DOCKED: REMARK  10 active torsions:
DOCKED: REMARK  status: ('A' for Active; 'I' for Inactive)
DOCKED: REMARK    1  A    between atoms: C_6  and  C_10 
DOCKED: REMARK    2  A    between atoms: C_10  and  C_11 
DOCKED: REMARK    3  A    between atoms: C_11  and  C_12 
DOCKED: REMARK    4  A    between atoms: C_12  and  O_14 
DOCKED: REMARK    5  A    between atoms: C_17  and  C_20 
DOCKED: REMARK    6  A    between atoms: C_24  and  C_27 
DOCKED: REMARK    7  A    between atoms: C_31  and  C_34 
DOCKED: REMARK    8  A    between atoms: C_34  and  C_35 
DOCKED: REMARK    9  A    between atoms: C_35  and  C_36 
DOCKED: REMARK   10  A    between atoms: C_36  and  O_38 
DOCKED: USER                              x       y       z     vdW  Elec       q    Type
DOCKED: USER                           _______ _______ _______ _____ _____    ______ ____
DOCKED: ROOT
DOCKED: ATOM      1  C   UNL d   1       8.607  17.411  -9.921 -0.07 +0.00    +0.064 A 
DOCKED: ATOM      2  C   UNL d   1       9.029  13.793 -12.969 -0.17 -0.00    +0.064 A 
DOCKED: ATOM      3  C   UNL d   1      13.001  12.259 -10.742 -0.18 -0.02    +0.064 C 
DOCKED: ATOM      4  C   UNL d   1      12.309  15.698  -7.312 -0.18 -0.02    +0.064 A 
DOCKED: ATOM      5  C   UNL d   1       8.397  16.551 -10.930 -0.09 +0.00    +0.066 A 
DOCKED: ATOM      6  C   UNL d   1       7.344  16.659 -11.844 -0.09 -0.00    -0.021 A 
DOCKED: ATOM      7  C   UNL d   1       7.440  15.588 -12.701 -0.12 -0.00    -0.025 A 
DOCKED: ATOM      8  C   UNL d   1       8.577  14.882 -12.317 -0.16 +0.00    +0.066 A 
DOCKED: ATOM      9  C   UNL d   1       6.455  15.271 -13.804 -0.11 +0.00    +0.051 C 
DOCKED: ATOM     10  C   UNL d   1      10.226  13.024 -12.627 -0.14 -0.00    +0.066 A 
DOCKED: ATOM     11  C   UNL d   1      10.741  12.003 -13.433 -0.05 +0.00    -0.021 A 
DOCKED: ATOM     12  C   UNL d   1      11.897  11.560 -12.817 -0.22 -0.00    +0.000 A 
DOCKED: ATOM     13  C   UNL d   1      12.018  12.346 -11.637 -0.21 -0.02    +0.070 A 
DOCKED: ATOM     14  C   UNL d   1      10.170  11.490 -14.750 -0.10 -0.00    +0.052 C 
DOCKED: ATOM     15  C   UNL d   1      13.141  13.011  -9.518 -0.19 -0.02    +0.066 A 
DOCKED: ATOM     16  C   UNL d   1      14.105  12.759  -8.541 -0.22 +0.01    -0.021 A 
DOCKED: ATOM     17  C   UNL d   1      13.926  13.727  -7.553 -0.23 -0.00    +0.000 A 
DOCKED: ATOM     18  C   UNL d   1      12.854  14.508  -8.008 -0.18 -0.01    +0.070 A 
DOCKED: ATOM     19  C   UNL d   1      15.063  11.597  -8.611 -0.30 -0.02    +0.052 C 
DOCKED: ATOM     20  C   UNL d   1      11.255  16.443  -7.699 -0.14 -0.01    +0.066 A 
DOCKED: ATOM     21  C   UNL d   1      10.798  17.564  -7.011 -0.13 +0.00    -0.025 A 
DOCKED: ATOM     22  C   UNL d   1       9.761  18.081  -7.754 -0.10 -0.00    -0.021 A 
DOCKED: ATOM     23  C   UNL d   1       9.611  17.242  -8.863 -0.09 +0.00    +0.066 A 
DOCKED: ATOM     24  C   UNL d   1      11.322  18.112  -5.709 -0.16 -0.02    +0.051 C 
DOCKED: ATOM     25  N   UNL d   1       9.128  15.439 -11.186 -0.09 +0.00    -0.248 N 
DOCKED: ATOM     26  N   UNL d   1      10.995  13.231 -11.527 -0.14 +0.03    -0.248 N 
DOCKED: ATOM     27  N   UNL d   1      12.342  14.013  -9.164 -0.11 +0.05    -0.248 N 
DOCKED: ATOM     28  N   UNL d   1      10.491  16.222  -8.802 -0.07 +0.01    -0.248 N 
DOCKED: ATOM     29 FE   UNL d   1      10.743  14.736 -10.153 -0.04 -0.00    +0.000 Fe
DOCKED: ATOM     30  O   UNL d   1       9.483  13.829 -10.041 -0.38 -0.00    +0.000 OA
DOCKED: ATOM     31  O   UNL d   1      10.390  14.066  -8.775 -0.46 -0.00    +0.000 OA
DOCKED: ENDROOT
DOCKED: BRANCH   6  32
DOCKED: ATOM     32  C   UNL d   1       6.210  17.651 -11.833 -0.06 +0.00    +0.052 C 
DOCKED: BRANCH  32  33
DOCKED: ATOM     33  C   UNL d   1       6.529  18.924 -12.611 -0.01 +0.00    +0.115 C 
DOCKED: BRANCH  33  34
DOCKED: ATOM     34  C   UNL d   1       7.382  19.884 -11.820 -0.00 +0.00    +0.139 C 
DOCKED: ATOM     35  O   UNL d   1       8.323  20.442 -12.361 +0.00 +0.01    -0.650 OA
DOCKED: BRANCH  34  36
DOCKED: ATOM     36  O   UNL d   1       7.146  20.122 -10.513 +0.02 -0.02    -0.776 OA
DOCKED: ATOM     37  H   UNL d   1       6.867  19.424  -9.909 +0.02 +0.01    +0.167 HD
DOCKED: ENDBRANCH  34  36
DOCKED: ENDBRANCH  33  34
DOCKED: ENDBRANCH  32  33
DOCKED: ENDBRANCH   6  32
DOCKED: BRANCH  22  38
DOCKED: ATOM     38  C   UNL d   1       8.923  19.277  -7.381 -0.08 +0.00    +0.052 C 
DOCKED: BRANCH  38  39
DOCKED: ATOM     39  C   UNL d   1       7.676  18.889  -6.590 -0.09 +0.05    +0.115 C 
DOCKED: BRANCH  39  40
DOCKED: ATOM     40  C   UNL d   1       6.599  18.299  -7.465 -0.08 +0.08    +0.139 C 
DOCKED: ATOM     41  O   UNL d   1       6.432  17.090  -7.489 -0.25 -0.41    -0.650 OA
DOCKED: BRANCH  40  42
DOCKED: ATOM     42  O   UNL d   1       5.779  19.087  -8.186 +0.01 -0.26    -0.776 OA
DOCKED: ATOM     43  H   UNL d   1       6.115  19.837  -8.691 +0.02 +0.03    +0.167 HD
DOCKED: ENDBRANCH  40  42
DOCKED: ENDBRANCH  39  40
DOCKED: ENDBRANCH  38  39
DOCKED: ENDBRANCH  22  38
DOCKED: BRANCH  12  44
DOCKED: ATOM     44  C   UNL d   1      12.747  10.453 -13.404 -0.28 -0.00    +0.004 C 
DOCKED: ATOM     45  C   UNL d   1      13.235   9.379 -12.784 -0.42 -0.00    +0.012 C 
DOCKED: ENDBRANCH  12  44
DOCKED: BRANCH  17  46
DOCKED: ATOM     46  C   UNL d   1      14.621  13.932  -6.234 -0.33 -0.00    +0.004 C 
DOCKED: ATOM     47  C   UNL d   1      15.240  13.021  -5.473 -0.41 -0.00    +0.012 C 
DOCKED: ENDBRANCH  17  46
DOCKED: TORSDOF 10
DOCKED: TER
DOCKED: ENDMDL
________________________________________________________________________________


	BEGINNING GENETIC ALGORITHM DOCKING 81 of 100
Run: 81 Seed: 1678139929 1163321804 [ Run 81 of 100 GA/GALS ]
Beginning LAMARCKIAN GENETIC ALGORITHM (LGA), with a maximum of 25000000 energy evaluations.

Final-Value: -9.851


	FINAL GENETIC ALGORITHM DOCKED STATE
	_______________________________________________


Detailed state:  trans -4.652 -12.888 -13.779 quatxyzw -0.284424 -0.325801 -0.803411 0.409253 center 8.287 34.468 -0.670 ntor 10 81.7405 -51.2314 52.0099 104.3602 37.9868 -79.6934 -49.0187 -26.6351 157.1283 -23.1418
State:	 -4.652 -12.888 -13.779  -0.312 -0.357 -0.881 131.684     81.74  -51.23   52.01  104.36   37.99  -79.69  -49.02  -26.64  157.13  -23.14

DOCKED: MODEL       81
DOCKED: USER    Run = 81
DOCKED: USER    DPF = D:/Protein_go_brrr/autodock/final/mut_Y35F/heme_O2/dock.dpf
DOCKED: USER  
DOCKED: USER    Estimated Free Energy of Binding    =   -6.48 kcal/mol  [=(1)+(2)+(3)-(4)]
DOCKED: USER    Estimated Inhibition Constant, Ki   =   17.74 uM (micromolar)  [Temperature = 298.15 K]
DOCKED: USER    
DOCKED: USER    (1) Final Intermolecular Energy     =   -9.46 kcal/mol
DOCKED: USER        vdW + Hbond + desolv Energy     =   -8.16 kcal/mol
DOCKED: USER        Electrostatic Energy            =   -1.31 kcal/mol
DOCKED: USER    (2) Final Total Internal Energy     =   -0.39 kcal/mol
DOCKED: USER    (3) Torsional Free Energy           =   +2.98 kcal/mol
DOCKED: USER    (4) Unbound System's Energy  [=(2)] =   -0.39 kcal/mol
DOCKED: USER    
DOCKED: USER    
DOCKED: USER    NEWDPF move heme_O2_opt.pdbqt
DOCKED: USER    NEWDPF about 8.287000 34.468000 -0.670000
DOCKED: USER    NEWDPF tran0 -4.651823 -12.887857 -13.778727
DOCKED: USER    NEWDPF quaternion0 -0.284424 -0.325801 -0.803411 0.409253
DOCKED: USER    NEWDPF axisangle0 -0.311725 -0.357073 -0.880526 131.684195
DOCKED: USER    NEWDPF quat0 -0.311725 -0.357073 -0.880526 131.684195
DOCKED: USER    NEWDPF dihe0 81.74 -51.23 52.01 104.36 37.99 -79.69 -49.02 -26.64 157.13 -23.14 
DOCKED: USER  keepresnum = 1 
DOCKED: USER  
DOCKED: REMARK  10 active torsions:
DOCKED: REMARK  status: ('A' for Active; 'I' for Inactive)
DOCKED: REMARK    1  A    between atoms: C_6  and  C_10 
DOCKED: REMARK    2  A    between atoms: C_10  and  C_11 
DOCKED: REMARK    3  A    between atoms: C_11  and  C_12 
DOCKED: REMARK    4  A    between atoms: C_12  and  O_14 
DOCKED: REMARK    5  A    between atoms: C_17  and  C_20 
DOCKED: REMARK    6  A    between atoms: C_24  and  C_27 
DOCKED: REMARK    7  A    between atoms: C_31  and  C_34 
DOCKED: REMARK    8  A    between atoms: C_34  and  C_35 
DOCKED: REMARK    9  A    between atoms: C_35  and  C_36 
DOCKED: REMARK   10  A    between atoms: C_36  and  O_38 
DOCKED: USER                              x       y       z     vdW  Elec       q    Type
DOCKED: USER                           _______ _______ _______ _____ _____    ______ ____
DOCKED: ROOT
DOCKED: ATOM      1  C   UNL d   1      -4.574 -14.969 -14.180 -0.22 +0.01    +0.064 A 
DOCKED: ATOM      2  C   UNL d   1      -1.195 -11.667 -13.699 -0.24 -0.01    +0.064 A 
DOCKED: ATOM      3  C   UNL d   1      -4.502  -8.255 -12.980 -0.14 -0.00    +0.064 C 
DOCKED: ATOM      4  C   UNL d   1      -7.969 -11.726 -12.998 -0.17 -0.01    +0.064 A 
DOCKED: ATOM      5  C   UNL d   1      -3.385 -14.350 -14.106 -0.18 +0.01    +0.066 A 
DOCKED: ATOM      6  C   UNL d   1      -2.156 -14.991 -14.285 -0.15 -0.00    -0.021 A 
DOCKED: ATOM      7  C   UNL d   1      -1.175 -14.044 -14.103 -0.16 -0.00    -0.025 A 
DOCKED: ATOM      8  C   UNL d   1      -1.833 -12.841 -13.866 -0.17 -0.00    +0.066 A 
DOCKED: ATOM      9  C   UNL d   1       0.312 -14.322 -14.133 -0.15 -0.00    +0.051 C 
DOCKED: ATOM     10  C   UNL d   1      -1.832 -10.369 -13.469 -0.23 -0.00    +0.066 A 
DOCKED: ATOM     11  C   UNL d   1      -1.131  -9.158 -13.466 -0.27 +0.00    -0.021 A 
DOCKED: ATOM     12  C   UNL d   1      -2.070  -8.160 -13.278 -0.22 -0.00    +0.000 A 
DOCKED: ATOM     13  C   UNL d   1      -3.317  -8.836 -13.162 -0.11 -0.00    +0.070 A 
DOCKED: ATOM     14  C   UNL d   1       0.367  -8.958 -13.662 -0.15 +0.01    +0.052 C 
DOCKED: ATOM     15  C   UNL d   1      -5.781  -8.904 -12.823 -0.14 -0.01    +0.066 A 
DOCKED: ATOM     16  C   UNL d   1      -6.962  -8.251 -12.471 -0.17 +0.00    -0.021 A 
DOCKED: ATOM     17  C   UNL d   1      -7.964  -9.221 -12.469 -0.20 -0.00    +0.000 A 
DOCKED: ATOM     18  C   UNL d   1      -7.311 -10.409 -12.826 -0.15 -0.01    +0.070 A 
DOCKED: ATOM     19  C   UNL d   1      -7.017  -6.786 -12.117 -0.08 -0.01    +0.052 C 
DOCKED: ATOM     20  C   UNL d   1      -7.366 -12.893 -13.298 -0.17 -0.00    +0.066 A 
DOCKED: ATOM     21  C   UNL d   1      -8.041 -14.100 -13.464 -0.18 -0.00    -0.025 A 
DOCKED: ATOM     22  C   UNL d   1      -7.093 -15.029 -13.828 -0.22 -0.00    -0.021 A 
DOCKED: ATOM     23  C   UNL d   1      -5.867 -14.357 -13.853 -0.21 +0.00    +0.066 A 
DOCKED: ATOM     24  C   UNL d   1      -9.515 -14.353 -13.281 -0.19 +0.00    +0.051 C 
DOCKED: ATOM     25  N   UNL d   1      -3.193 -13.042 -13.802 -0.12 -0.00    -0.248 N 
DOCKED: ATOM     26  N   UNL d   1      -3.162 -10.179 -13.275 -0.13 +0.02    -0.248 N 
DOCKED: ATOM     27  N   UNL d   1      -5.975 -10.213 -12.964 -0.07 +0.02    -0.248 N 
DOCKED: ATOM     28  N   UNL d   1      -6.031 -13.069 -13.486 -0.12 +0.01    -0.248 N 
DOCKED: ATOM     29 FE   UNL d   1      -4.609 -11.633 -13.380 -0.04 -0.00    +0.000 Fe
DOCKED: ATOM     30  O   UNL d   1      -3.708 -12.002 -12.166 -0.44 -0.00    +0.000 OA
DOCKED: ATOM     31  O   UNL d   1      -5.251 -11.767 -11.951 -0.43 -0.00    +0.000 OA
DOCKED: ENDROOT
DOCKED: BRANCH   6  32
DOCKED: ATOM     32  C   UNL d   1      -1.903 -16.463 -14.484 -0.20 +0.01    +0.052 C 
DOCKED: BRANCH  32  33
DOCKED: ATOM     33  C   UNL d   1      -1.037 -17.068 -13.383 -0.19 +0.03    +0.115 C 
DOCKED: BRANCH  33  34
DOCKED: ATOM     34  C   UNL d   1      -1.653 -18.308 -12.783 -0.17 +0.05    +0.139 C 
DOCKED: ATOM     35  O   UNL d   1      -2.035 -18.291 -11.624 -0.66 -0.30    -0.650 OA
DOCKED: BRANCH  34  36
DOCKED: ATOM     36  O   UNL d   1      -1.768 -19.450 -13.491 -0.02 -0.41    -0.776 OA
DOCKED: ATOM     37  H   UNL d   1      -1.034 -20.068 -13.587 +0.03 +0.07    +0.167 HD
DOCKED: ENDBRANCH  34  36
DOCKED: ENDBRANCH  33  34
DOCKED: ENDBRANCH  32  33
DOCKED: ENDBRANCH   6  32
DOCKED: BRANCH  22  38
DOCKED: ATOM     38  C   UNL d   1      -7.348 -16.494 -14.073 -0.09 +0.02    +0.052 C 
DOCKED: BRANCH  38  39
DOCKED: ATOM     39  C   UNL d   1      -7.959 -16.756 -15.448 -0.11 +0.03    +0.115 C 
DOCKED: BRANCH  39  40
DOCKED: ATOM     40  C   UNL d   1      -7.616 -18.125 -15.980 -0.04 +0.08    +0.139 C 
DOCKED: ATOM     41  O   UNL d   1      -8.028 -19.119 -15.404 -0.05 -0.47    -0.650 OA
DOCKED: BRANCH  40  42
DOCKED: ATOM     42  O   UNL d   1      -6.904 -18.273 -17.113 -0.00 -0.51    -0.776 OA
DOCKED: ATOM     43  H   UNL d   1      -7.129 -17.791 -17.918 +0.01 +0.07    +0.167 HD
DOCKED: ENDBRANCH  40  42
DOCKED: ENDBRANCH  39  40
DOCKED: ENDBRANCH  38  39
DOCKED: ENDBRANCH  22  38
DOCKED: BRANCH  12  44
DOCKED: ATOM     44  C   UNL d   1      -1.688  -6.696 -13.226 -0.26 +0.00    +0.004 C 
DOCKED: ATOM     45  C   UNL d   1      -2.063  -5.783 -12.331 -0.27 +0.00    +0.012 C 
DOCKED: ENDBRANCH  12  44
DOCKED: BRANCH  17  46
DOCKED: ATOM     46  C   UNL d   1      -9.424  -9.133 -12.112 -0.28 -0.00    +0.004 C 
DOCKED: ATOM     47  C   UNL d   1     -10.471  -8.989 -12.936 -0.22 -0.00    +0.012 C 
DOCKED: ENDBRANCH  17  46
DOCKED: TORSDOF 10
DOCKED: TER
DOCKED: ENDMDL
________________________________________________________________________________


	BEGINNING GENETIC ALGORITHM DOCKING 82 of 100
Run: 82 Seed: 1672410755 1270855910 [ Run 82 of 100 GA/GALS ]
Beginning LAMARCKIAN GENETIC ALGORITHM (LGA), with a maximum of 25000000 energy evaluations.

Final-Value: -10.044


	FINAL GENETIC ALGORITHM DOCKED STATE
	_______________________________________________


Detailed state:  trans -15.363 9.362 8.591 quatxyzw 0.605447 0.558573 -0.029424 -0.566184 center 8.287 34.468 -0.670 ntor 10 108.7468 32.6365 25.6099 120.6166 16.6944 -113.9444 -140.6742 -129.0317 157.9777 123.7992
State:	-15.363   9.362   8.591   0.735  0.678 -0.036 -111.031    108.75   32.64   25.61  120.62   16.69 -113.94 -140.67 -129.03  157.98  123.80

DOCKED: MODEL       82
DOCKED: USER    Run = 82
DOCKED: USER    DPF = D:/Protein_go_brrr/autodock/final/mut_Y35F/heme_O2/dock.dpf
DOCKED: USER  
DOCKED: USER    Estimated Free Energy of Binding    =   -5.54 kcal/mol  [=(1)+(2)+(3)-(4)]
DOCKED: USER    Estimated Inhibition Constant, Ki   =   86.63 uM (micromolar)  [Temperature = 298.15 K]
DOCKED: USER    
DOCKED: USER    (1) Final Intermolecular Energy     =   -8.52 kcal/mol
DOCKED: USER        vdW + Hbond + desolv Energy     =   -4.36 kcal/mol
DOCKED: USER        Electrostatic Energy            =   -4.16 kcal/mol
DOCKED: USER    (2) Final Total Internal Energy     =   -1.52 kcal/mol
DOCKED: USER    (3) Torsional Free Energy           =   +2.98 kcal/mol
DOCKED: USER    (4) Unbound System's Energy  [=(2)] =   -1.52 kcal/mol
DOCKED: USER    
DOCKED: USER    
DOCKED: USER    NEWDPF move heme_O2_opt.pdbqt
DOCKED: USER    NEWDPF about 8.287000 34.468000 -0.670000
DOCKED: USER    NEWDPF tran0 -15.362698 9.362124 8.590655
DOCKED: USER    NEWDPF quaternion0 0.605447 0.558573 -0.029424 -0.566184
DOCKED: USER    NEWDPF axisangle0 0.734517 0.677651 -0.035697 -111.030876
DOCKED: USER    NEWDPF quat0 0.734517 0.677651 -0.035697 -111.030876
DOCKED: USER    NEWDPF dihe0 108.75 32.64 25.61 120.62 16.69 -113.94 -140.67 -129.03 157.98 123.80 
DOCKED: USER  keepresnum = 1 
DOCKED: USER  
DOCKED: REMARK  10 active torsions:
DOCKED: REMARK  status: ('A' for Active; 'I' for Inactive)
DOCKED: REMARK    1  A    between atoms: C_6  and  C_10 
DOCKED: REMARK    2  A    between atoms: C_10  and  C_11 
DOCKED: REMARK    3  A    between atoms: C_11  and  C_12 
DOCKED: REMARK    4  A    between atoms: C_12  and  O_14 
DOCKED: REMARK    5  A    between atoms: C_17  and  C_20 
DOCKED: REMARK    6  A    between atoms: C_24  and  C_27 
DOCKED: REMARK    7  A    between atoms: C_31  and  C_34 
DOCKED: REMARK    8  A    between atoms: C_34  and  C_35 
DOCKED: REMARK    9  A    between atoms: C_35  and  C_36 
DOCKED: REMARK   10  A    between atoms: C_36  and  O_38 
DOCKED: USER                              x       y       z     vdW  Elec       q    Type
DOCKED: USER                           _______ _______ _______ _____ _____    ______ ____
DOCKED: ROOT
DOCKED: ATOM      1  C   UNL d   1     -16.113   8.894  10.519 -0.04 +0.05    +0.064 A 
DOCKED: ATOM      2  C   UNL d   1     -15.396   6.263   6.630 -0.05 +0.04    +0.064 A 
DOCKED: ATOM      3  C   UNL d   1     -13.815  10.104   4.211 -0.05 +0.01    +0.064 C 
DOCKED: ATOM      4  C   UNL d   1     -14.098  12.724   8.349 -0.04 +0.02    +0.064 A 
DOCKED: ATOM      5  C   UNL d   1     -16.045   7.865   9.659 -0.05 +0.05    +0.066 A 
DOCKED: ATOM      6  C   UNL d   1     -16.441   6.560   9.967 -0.06 -0.02    -0.021 A 
DOCKED: ATOM      7  C   UNL d   1     -16.193   5.789   8.856 -0.10 -0.02    -0.025 A 
DOCKED: ATOM      8  C   UNL d   1     -15.698   6.653   7.883 -0.05 +0.05    +0.066 A 
DOCKED: ATOM      9  C   UNL d   1     -16.405   4.292   8.776 -0.19 +0.05    +0.051 C 
DOCKED: ATOM     10  C   UNL d   1     -14.894   7.128   5.560 -0.04 +0.03    +0.066 A 
DOCKED: ATOM     11  C   UNL d   1     -14.753   6.707   4.234 -0.07 -0.01    -0.021 A 
DOCKED: ATOM     12  C   UNL d   1     -14.315   7.805   3.517 -0.07 +0.00    +0.000 A 
DOCKED: ATOM     13  C   UNL d   1     -14.201   8.854   4.471 -0.05 +0.02    +0.070 A 
DOCKED: ATOM     14  C   UNL d   1     -15.048   5.323   3.668 -0.08 +0.01    +0.052 C 
DOCKED: ATOM     15  C   UNL d   1     -13.653  11.184   5.154 -0.03 +0.01    +0.066 A 
DOCKED: ATOM     16  C   UNL d   1     -13.090  12.422   4.847 -0.09 -0.00    -0.021 A 
DOCKED: ATOM     17  C   UNL d   1     -13.159  13.186   6.012 -0.11 +0.00    +0.000 A 
DOCKED: ATOM     18  C   UNL d   1     -13.769  12.346   6.954 -0.05 +0.01    +0.070 A 
DOCKED: ATOM     19  C   UNL d   1     -12.492  12.744   3.500 -0.11 -0.00    +0.052 C 
DOCKED: ATOM     20  C   UNL d   1     -14.643  11.930   9.290 -0.05 +0.03    +0.066 A 
DOCKED: ATOM     21  C   UNL d   1     -14.947  12.347  10.583 -0.04 -0.01    -0.025 A 
DOCKED: ATOM     22  C   UNL d   1     -15.547  11.277  11.207 -0.04 -0.01    -0.021 A 
DOCKED: ATOM     23  C   UNL d   1     -15.571  10.236  10.274 -0.04 +0.06    +0.066 A 
DOCKED: ATOM     24  C   UNL d   1     -14.675  13.698  11.193 -0.02 +0.01    +0.051 C 
DOCKED: ATOM     25  N   UNL d   1     -15.546   7.919   8.400 -0.03 -0.20    -0.248 N 
DOCKED: ATOM     26  N   UNL d   1     -14.551   8.432   5.712 -0.01 -0.10    -0.248 N 
DOCKED: ATOM     27  N   UNL d   1     -13.993  11.111   6.437 -0.01 -0.07    -0.248 N 
DOCKED: ATOM     28  N   UNL d   1     -14.980  10.623   9.125 -0.04 -0.20    -0.248 N 
DOCKED: ATOM     29 FE   UNL d   1     -14.765   9.538   7.430 -0.01 +0.00    +0.000 Fe
DOCKED: ATOM     30  O   UNL d   1     -13.717   8.432   7.751 -0.36 +0.00    +0.000 OA
DOCKED: ATOM     31  O   UNL d   1     -13.326   9.950   7.911 -0.46 +0.00    +0.000 OA
DOCKED: ENDROOT
DOCKED: BRANCH   6  32
DOCKED: ATOM     32  C   UNL d   1     -16.906   6.026  11.297 -0.06 +0.03    +0.052 C 
DOCKED: BRANCH  32  33
DOCKED: ATOM     33  C   UNL d   1     -15.995   4.933  11.848 -0.14 +0.09    +0.115 C 
DOCKED: BRANCH  33  34
DOCKED: ATOM     34  C   UNL d   1     -14.539   5.195  11.554 -0.19 +0.18    +0.139 C 
DOCKED: ATOM     35  O   UNL d   1     -13.836   4.291  11.131 -0.28 -1.47    -0.650 OA
DOCKED: BRANCH  34  36
DOCKED: ATOM     36  O   UNL d   1     -13.984   6.405  11.774 -0.06 -1.33    -0.776 OA
DOCKED: ATOM     37  H   UNL d   1     -13.355   6.556  12.490 +0.03 +0.29    +0.167 HD
DOCKED: ENDBRANCH  34  36
DOCKED: ENDBRANCH  33  34
DOCKED: ENDBRANCH  32  33
DOCKED: ENDBRANCH   6  32
DOCKED: BRANCH  22  38
DOCKED: ATOM     38  C   UNL d   1     -16.010  11.243  12.641 -0.02 +0.02    +0.052 C 
DOCKED: BRANCH  38  39
DOCKED: ATOM     39  C   UNL d   1     -15.589   9.962  13.358 -0.04 +0.07    +0.115 C 
DOCKED: BRANCH  39  40
DOCKED: ATOM     40  C   UNL d   1     -14.122   9.659  13.182 +0.02 +0.18    +0.139 C 
DOCKED: ATOM     41  O   UNL d   1     -13.325  10.573  13.047 -0.45 -0.87    -0.650 OA
DOCKED: BRANCH  40  42
DOCKED: ATOM     42  O   UNL d   1     -13.664   8.392  13.221 -0.29 -1.46    -0.776 OA
DOCKED: ATOM     43  H   UNL d   1     -14.180   7.658  12.869 +0.02 +0.29    +0.167 HD
DOCKED: ENDBRANCH  40  42
DOCKED: ENDBRANCH  39  40
DOCKED: ENDBRANCH  38  39
DOCKED: ENDBRANCH  22  38
DOCKED: BRANCH  12  44
DOCKED: ATOM     44  C   UNL d   1     -14.053   7.740   2.027 -0.09 +0.00    +0.004 C 
DOCKED: ATOM     45  C   UNL d   1     -13.291   8.551   1.293 -0.10 +0.00    +0.012 C 
DOCKED: ENDBRANCH  12  44
DOCKED: BRANCH  17  46
DOCKED: ATOM     46  C   UNL d   1     -12.660  14.574   6.314 -0.11 -0.00    +0.004 C 
DOCKED: ATOM     47  C   UNL d   1     -13.379  15.671   6.591 -0.16 -0.00    +0.012 C 
DOCKED: ENDBRANCH  17  46
DOCKED: TORSDOF 10
DOCKED: TER
DOCKED: ENDMDL
________________________________________________________________________________


	BEGINNING GENETIC ALGORITHM DOCKING 83 of 100
Run: 83 Seed: 716431494 227893730 [ Run 83 of 100 GA/GALS ]
Beginning LAMARCKIAN GENETIC ALGORITHM (LGA), with a maximum of 25000000 energy evaluations.

Final-Value: -11.370


	FINAL GENETIC ALGORITHM DOCKED STATE
	_______________________________________________


Detailed state:  trans 11.009 11.271 7.390 quatxyzw -0.681718 -0.587637 -0.392488 0.189463 center 8.287 34.468 -0.670 ntor 10 101.0311 -45.1291 -86.6966 -118.8615 169.9159 175.5488 -44.5330 21.7963 -148.1786 -178.4515
State:	 11.009  11.271   7.390  -0.694 -0.598 -0.400 158.157    101.03  -45.13  -86.70 -118.86  169.92  175.55  -44.53   21.80 -148.18 -178.45

DOCKED: MODEL       83
DOCKED: USER    Run = 83
DOCKED: USER    DPF = D:/Protein_go_brrr/autodock/final/mut_Y35F/heme_O2/dock.dpf
DOCKED: USER  
DOCKED: USER    Estimated Free Energy of Binding    =   -6.86 kcal/mol  [=(1)+(2)+(3)-(4)]
DOCKED: USER    Estimated Inhibition Constant, Ki   =    9.32 uM (micromolar)  [Temperature = 298.15 K]
DOCKED: USER    
DOCKED: USER    (1) Final Intermolecular Energy     =   -9.85 kcal/mol
DOCKED: USER        vdW + Hbond + desolv Energy     =   -6.89 kcal/mol
DOCKED: USER        Electrostatic Energy            =   -2.96 kcal/mol
DOCKED: USER    (2) Final Total Internal Energy     =   -1.52 kcal/mol
DOCKED: USER    (3) Torsional Free Energy           =   +2.98 kcal/mol
DOCKED: USER    (4) Unbound System's Energy  [=(2)] =   -1.52 kcal/mol
DOCKED: USER    
DOCKED: USER    
DOCKED: USER    NEWDPF move heme_O2_opt.pdbqt
DOCKED: USER    NEWDPF about 8.287000 34.468000 -0.670000
DOCKED: USER    NEWDPF tran0 11.008866 11.270795 7.390433
DOCKED: USER    NEWDPF quaternion0 -0.681718 -0.587637 -0.392488 0.189463
DOCKED: USER    NEWDPF axisangle0 -0.694294 -0.598477 -0.399728 158.157064
DOCKED: USER    NEWDPF quat0 -0.694294 -0.598477 -0.399728 158.157064
DOCKED: USER    NEWDPF dihe0 101.03 -45.13 -86.70 -118.86 169.92 175.55 -44.53 21.80 -148.18 -178.45 
DOCKED: USER  keepresnum = 1 
DOCKED: USER  
DOCKED: REMARK  10 active torsions:
DOCKED: REMARK  status: ('A' for Active; 'I' for Inactive)
DOCKED: REMARK    1  A    between atoms: C_6  and  C_10 
DOCKED: REMARK    2  A    between atoms: C_10  and  C_11 
DOCKED: REMARK    3  A    between atoms: C_11  and  C_12 
DOCKED: REMARK    4  A    between atoms: C_12  and  O_14 
DOCKED: REMARK    5  A    between atoms: C_17  and  C_20 
DOCKED: REMARK    6  A    between atoms: C_24  and  C_27 
DOCKED: REMARK    7  A    between atoms: C_31  and  C_34 
DOCKED: REMARK    8  A    between atoms: C_34  and  C_35 
DOCKED: REMARK    9  A    between atoms: C_35  and  C_36 
DOCKED: REMARK   10  A    between atoms: C_36  and  O_38 
DOCKED: USER                              x       y       z     vdW  Elec       q    Type
DOCKED: USER                           _______ _______ _______ _____ _____    ______ ____
DOCKED: ROOT
DOCKED: ATOM      1  C   UNL d   1      10.793   9.189   7.735 -0.15 +0.02    +0.064 A 
DOCKED: ATOM      2  C   UNL d   1      11.824  11.705   3.841 -0.21 -0.01    +0.064 A 
DOCKED: ATOM      3  C   UNL d   1      11.475  15.822   6.297 -0.17 -0.01    +0.064 C 
DOCKED: ATOM      4  C   UNL d   1      10.884  13.221  10.414 -0.22 +0.02    +0.064 A 
DOCKED: ATOM      5  C   UNL d   1      11.104   9.537   6.476 -0.14 +0.01    +0.066 A 
DOCKED: ATOM      6  C   UNL d   1      11.272   8.625   5.431 -0.20 -0.00    -0.021 A 
DOCKED: ATOM      7  C   UNL d   1      11.614   9.350   4.312 -0.26 -0.00    -0.025 A 
DOCKED: ATOM      8  C   UNL d   1      11.597  10.688   4.695 -0.18 +0.00    +0.066 A 
DOCKED: ATOM      9  C   UNL d   1      11.962   8.752   2.967 -0.43 -0.00    +0.051 C 
DOCKED: ATOM     10  C   UNL d   1      11.798  13.129   4.178 -0.15 -0.01    +0.066 A 
DOCKED: ATOM     11  C   UNL d   1      11.879  14.148   3.223 -0.19 +0.00    -0.021 A 
DOCKED: ATOM     12  C   UNL d   1      11.762  15.342   3.909 -0.12 -0.00    +0.000 A 
DOCKED: ATOM     13  C   UNL d   1      11.625  14.977   5.277 -0.12 -0.01    +0.070 A 
DOCKED: ATOM     14  C   UNL d   1      12.034  13.988   1.715 -0.32 -0.02    +0.052 C 
DOCKED: ATOM     15  C   UNL d   1      11.369  15.494   7.698 -0.18 -0.00    +0.066 A 
DOCKED: ATOM     16  C   UNL d   1      11.378  16.429   8.732 -0.18 -0.00    -0.021 A 
DOCKED: ATOM     17  C   UNL d   1      11.212  15.711   9.916 -0.21 +0.00    +0.000 A 
DOCKED: ATOM     18  C   UNL d   1      11.110  14.373   9.510 -0.22 +0.01    +0.070 A 
DOCKED: ATOM     19  C   UNL d   1      11.599  17.904   8.505 -0.11 -0.00    +0.052 C 
DOCKED: ATOM     20  C   UNL d   1      10.824  11.922  10.063 -0.20 +0.02    +0.066 A 
DOCKED: ATOM     21  C   UNL d   1      10.591  10.881  10.958 -0.14 -0.01    -0.025 A 
DOCKED: ATOM     22  C   UNL d   1      10.535   9.728  10.208 -0.15 -0.01    -0.021 A 
DOCKED: ATOM     23  C   UNL d   1      10.755  10.106   8.880 -0.17 +0.02    +0.066 A 
DOCKED: ATOM     24  C   UNL d   1      10.433  10.982  12.453 -0.14 +0.03    +0.051 C 
DOCKED: ATOM     25  N   UNL d   1      11.347  10.799   6.043 -0.04 -0.02    -0.248 N 
DOCKED: ATOM     26  N   UNL d   1      11.653  13.629   5.432 +0.08 +0.01    -0.248 N 
DOCKED: ATOM     27  N   UNL d   1      11.282  14.253   8.169 -0.12 -0.02    -0.248 N 
DOCKED: ATOM     28  N   UNL d   1      10.975  11.435   8.802 -0.10 -0.05    -0.248 N 
DOCKED: ATOM     29 FE   UNL d   1      11.312  12.526   7.131 -0.04 +0.00    +0.000 Fe
DOCKED: ATOM     30  O   UNL d   1      12.731  12.128   6.631 -0.10 +0.00    +0.000 OA
DOCKED: ATOM     31  O   UNL d   1      12.552  12.720   8.079 -0.11 +0.00    +0.000 OA
DOCKED: ENDROOT
DOCKED: BRANCH   6  32
DOCKED: ATOM     32  C   UNL d   1      11.250   7.121   5.506 +0.04 +0.02    +0.052 C 
DOCKED: BRANCH  32  33
DOCKED: ATOM     33  C   UNL d   1      12.388   6.553   6.348 -0.16 +0.05    +0.115 C 
DOCKED: BRANCH  33  34
DOCKED: ATOM     34  C   UNL d   1      11.914   5.503   7.323 -0.13 +0.16    +0.139 C 
DOCKED: ATOM     35  O   UNL d   1      10.838   4.955   7.143 -0.49 -1.09    -0.650 OA
DOCKED: BRANCH  34  36
DOCKED: ATOM     36  O   UNL d   1      12.641   5.173   8.410 -0.07 -1.03    -0.776 OA
DOCKED: ATOM     37  H   UNL d   1      12.426   5.506   9.289 +0.01 +0.26    +0.167 HD
DOCKED: ENDBRANCH  34  36
DOCKED: ENDBRANCH  33  34
DOCKED: ENDBRANCH  32  33
DOCKED: ENDBRANCH   6  32
DOCKED: BRANCH  22  38
DOCKED: ATOM     38  C   UNL d   1      10.344   8.335  10.752 -0.12 +0.03    +0.052 C 
DOCKED: BRANCH  38  39
DOCKED: ATOM     39  C   UNL d   1      11.617   7.779  11.387 -0.06 +0.06    +0.115 C 
DOCKED: BRANCH  39  40
DOCKED: ATOM     40  C   UNL d   1      11.606   6.274  11.478 -0.05 +0.14    +0.139 C 
DOCKED: ATOM     41  O   UNL d   1      10.577   5.693  11.783 -0.30 -0.94    -0.650 OA
DOCKED: BRANCH  40  42
DOCKED: ATOM     42  O   UNL d   1      12.702   5.550  11.179 -0.02 -0.74    -0.776 OA
DOCKED: ATOM     43  H   UNL d   1      13.251   5.760  10.414 +0.01 +0.13    +0.167 HD
DOCKED: ENDBRANCH  40  42
DOCKED: ENDBRANCH  39  40
DOCKED: ENDBRANCH  38  39
DOCKED: ENDBRANCH  22  38
DOCKED: BRANCH  12  44
DOCKED: ATOM     44  C   UNL d   1      11.796  16.682   3.203 -0.10 -0.00    +0.004 C 
DOCKED: ATOM     45  C   UNL d   1      10.772  17.362   2.688 -0.13 -0.00    +0.012 C 
DOCKED: ENDBRANCH  12  44
DOCKED: BRANCH  17  46
DOCKED: ATOM     46  C   UNL d   1      11.200  16.162  11.352 -0.18 +0.00    +0.004 C 
DOCKED: ATOM     47  C   UNL d   1      11.948  15.711  12.368 -0.14 +0.01    +0.012 C 
DOCKED: ENDBRANCH  17  46
DOCKED: TORSDOF 10
DOCKED: TER
DOCKED: ENDMDL
________________________________________________________________________________


	BEGINNING GENETIC ALGORITHM DOCKING 84 of 100
Run: 84 Seed: 739847786 1151902308 [ Run 84 of 100 GA/GALS ]
Beginning LAMARCKIAN GENETIC ALGORITHM (LGA), with a maximum of 25000000 energy evaluations.

Final-Value: -10.206


	FINAL GENETIC ALGORITHM DOCKED STATE
	_______________________________________________


Detailed state:  trans 11.123 1.055 11.331 quatxyzw -0.350234 -0.058674 0.749224 0.559068 center 8.287 34.468 -0.670 ntor 10 170.7480 -19.9345 61.9800 141.4815 -120.7522 155.2597 131.9179 178.7074 22.1465 1.9750
State:	 11.123   1.055  11.331  -0.422 -0.071  0.904 112.017    170.75  -19.93   61.98  141.48 -120.75  155.26  131.92  178.71   22.15    1.97

DOCKED: MODEL       84
DOCKED: USER    Run = 84
DOCKED: USER    DPF = D:/Protein_go_brrr/autodock/final/mut_Y35F/heme_O2/dock.dpf
DOCKED: USER  
DOCKED: USER    Estimated Free Energy of Binding    =   -5.64 kcal/mol  [=(1)+(2)+(3)-(4)]
DOCKED: USER    Estimated Inhibition Constant, Ki   =   72.81 uM (micromolar)  [Temperature = 298.15 K]
DOCKED: USER    
DOCKED: USER    (1) Final Intermolecular Energy     =   -8.63 kcal/mol
DOCKED: USER        vdW + Hbond + desolv Energy     =   -5.75 kcal/mol
DOCKED: USER        Electrostatic Energy            =   -2.87 kcal/mol
DOCKED: USER    (2) Final Total Internal Energy     =   -1.58 kcal/mol
DOCKED: USER    (3) Torsional Free Energy           =   +2.98 kcal/mol
DOCKED: USER    (4) Unbound System's Energy  [=(2)] =   -1.58 kcal/mol
DOCKED: USER    
DOCKED: USER    
DOCKED: USER    NEWDPF move heme_O2_opt.pdbqt
DOCKED: USER    NEWDPF about 8.287000 34.468000 -0.670000
DOCKED: USER    NEWDPF tran0 11.123178 1.054663 11.330963
DOCKED: USER    NEWDPF quaternion0 -0.350234 -0.058674 0.749224 0.559068
DOCKED: USER    NEWDPF axisangle0 -0.422415 -0.070766 0.903636 112.017320
DOCKED: USER    NEWDPF quat0 -0.422415 -0.070766 0.903636 112.017320
DOCKED: USER    NEWDPF dihe0 170.75 -19.93 61.98 141.48 -120.75 155.26 131.92 178.71 22.15 1.97 
DOCKED: USER  keepresnum = 1 
DOCKED: USER  
DOCKED: REMARK  10 active torsions:
DOCKED: REMARK  status: ('A' for Active; 'I' for Inactive)
DOCKED: REMARK    1  A    between atoms: C_6  and  C_10 
DOCKED: REMARK    2  A    between atoms: C_10  and  C_11 
DOCKED: REMARK    3  A    between atoms: C_11  and  C_12 
DOCKED: REMARK    4  A    between atoms: C_12  and  O_14 
DOCKED: REMARK    5  A    between atoms: C_17  and  C_20 
DOCKED: REMARK    6  A    between atoms: C_24  and  C_27 
DOCKED: REMARK    7  A    between atoms: C_31  and  C_34 
DOCKED: REMARK    8  A    between atoms: C_34  and  C_35 
DOCKED: REMARK    9  A    between atoms: C_35  and  C_36 
DOCKED: REMARK   10  A    between atoms: C_36  and  O_38 
DOCKED: USER                              x       y       z     vdW  Elec       q    Type
DOCKED: USER                           _______ _______ _______ _____ _____    ______ ____
DOCKED: ROOT
DOCKED: ATOM      1  C   UNL d   1      12.262   2.706  12.020 -0.05 +0.06    +0.064 A 
DOCKED: ATOM      2  C   UNL d   1       8.011   0.996  13.270 -0.06 +0.01    +0.064 A 
DOCKED: ATOM      3  C   UNL d   1       8.335  -2.479   9.967 -0.30 +0.00    +0.064 C 
DOCKED: ATOM      4  C   UNL d   1      12.917  -1.019   8.998 -0.15 +0.02    +0.064 A 
DOCKED: ATOM      5  C   UNL d   1      11.080   2.524  12.630 -0.07 +0.05    +0.066 A 
DOCKED: ATOM      6  C   UNL d   1      10.589   3.348  13.647 -0.06 -0.01    -0.021 A 
DOCKED: ATOM      7  C   UNL d   1       9.378   2.828  14.040 -0.05 -0.01    -0.025 A 
DOCKED: ATOM      8  C   UNL d   1       9.140   1.729  13.219 -0.07 +0.03    +0.066 A 
DOCKED: ATOM      9  C   UNL d   1       8.531   3.367  15.172 -0.02 +0.01    +0.051 C 
DOCKED: ATOM     10  C   UNL d   1       7.695  -0.152  12.420 -0.09 +0.01    +0.066 A 
DOCKED: ATOM     11  C   UNL d   1       6.442  -0.775  12.402 -0.12 +0.00    -0.021 A 
DOCKED: ATOM     12  C   UNL d   1       6.510  -1.769  11.443 -0.23 -0.00    +0.000 A 
DOCKED: ATOM     13  C   UNL d   1       7.834  -1.702  10.927 -0.19 -0.00    +0.070 A 
DOCKED: ATOM     14  C   UNL d   1       5.223  -0.420  13.245 -0.13 -0.02    +0.052 C 
DOCKED: ATOM     15  C   UNL d   1       9.679  -2.467   9.442 -0.20 +0.01    +0.066 A 
DOCKED: ATOM     16  C   UNL d   1      10.190  -3.414   8.554 -0.30 -0.00    -0.021 A 
DOCKED: ATOM     17  C   UNL d   1      11.496  -3.018   8.264 -0.32 +0.00    +0.000 A 
DOCKED: ATOM     18  C   UNL d   1      11.685  -1.843   9.005 -0.18 +0.02    +0.070 A 
DOCKED: ATOM     19  C   UNL d   1       9.414  -4.628   8.111 -0.33 +0.00    +0.052 C 
DOCKED: ATOM     20  C   UNL d   1      13.148   0.089   9.729 -0.12 +0.03    +0.066 A 
DOCKED: ATOM     21  C   UNL d   1      14.322   0.834   9.666 -0.07 -0.01    -0.025 A 
DOCKED: ATOM     22  C   UNL d   1      14.143   1.915  10.500 -0.06 -0.01    -0.021 A 
DOCKED: ATOM     23  C   UNL d   1      12.867   1.779  11.057 -0.09 +0.05    +0.066 A 
DOCKED: ATOM     24  C   UNL d   1      15.554   0.528   8.855 -0.04 +0.01    +0.051 C 
DOCKED: ATOM     25  N   UNL d   1      10.219   1.504  12.395 -0.06 -0.16    -0.248 N 
DOCKED: ATOM     26  N   UNL d   1       8.549  -0.719  11.530 -0.09 -0.05    -0.248 N 
DOCKED: ATOM     27  N   UNL d   1      10.599  -1.565   9.771 -0.12 -0.07    -0.248 N 
DOCKED: ATOM     28  N   UNL d   1      12.284   0.644  10.619 -0.09 -0.15    -0.248 N 
DOCKED: ATOM     29 FE   UNL d   1      10.431  -0.035  11.070 -0.03 +0.00    +0.000 Fe
DOCKED: ATOM     30  O   UNL d   1      10.481  -0.479  12.561 -0.07 +0.00    +0.000 OA
DOCKED: ATOM     31  O   UNL d   1      11.459  -1.138  11.516 -0.09 +0.00    +0.000 OA
DOCKED: ENDROOT
DOCKED: BRANCH   6  32
DOCKED: ATOM     32  C   UNL d   1      11.289   4.499  14.322 -0.02 +0.02    +0.052 C 
DOCKED: BRANCH  32  33
DOCKED: ATOM     33  C   UNL d   1      10.750   5.858  13.886 -0.03 +0.05    +0.115 C 
DOCKED: BRANCH  33  34
DOCKED: ATOM     34  C   UNL d   1      10.684   5.996  12.386 -0.05 +0.12    +0.139 C 
DOCKED: ATOM     35  O   UNL d   1       9.682   5.633  11.790 -0.53 -0.97    -0.650 OA
DOCKED: BRANCH  34  36
DOCKED: ATOM     36  O   UNL d   1      11.721   6.487  11.678 +0.00 -0.63    -0.776 OA
DOCKED: ATOM     37  H   UNL d   1      11.740   6.462  10.714 +0.01 +0.18    +0.167 HD
DOCKED: ENDBRANCH  34  36
DOCKED: ENDBRANCH  33  34
DOCKED: ENDBRANCH  32  33
DOCKED: ENDBRANCH   6  32
DOCKED: BRANCH  22  38
DOCKED: ATOM     38  C   UNL d   1      15.168   2.979  10.792 -0.02 +0.02    +0.052 C 
DOCKED: BRANCH  38  39
DOCKED: ATOM     39  C   UNL d   1      14.876   4.286  10.057 -0.02 +0.05    +0.115 C 
DOCKED: BRANCH  39  40
DOCKED: ATOM     40  C   UNL d   1      13.662   4.187   9.166 -0.05 +0.14    +0.139 C 
DOCKED: ATOM     41  O   UNL d   1      13.642   3.373   8.258 -0.08 -0.54    -0.650 OA
DOCKED: BRANCH  40  42
DOCKED: ATOM     42  O   UNL d   1      12.573   4.949   9.387 -0.09 -1.38    -0.776 OA
DOCKED: ATOM     43  H   UNL d   1      12.429   5.389  10.233 +0.01 +0.26    +0.167 HD
DOCKED: ENDBRANCH  40  42
DOCKED: ENDBRANCH  39  40
DOCKED: ENDBRANCH  38  39
DOCKED: ENDBRANCH  22  38
DOCKED: BRANCH  12  44
DOCKED: ATOM     44  C   UNL d   1       5.330  -2.664  11.127 -0.28 -0.00    +0.004 C 
DOCKED: ATOM     45  C   UNL d   1       5.272  -3.994  11.186 -0.22 -0.01    +0.012 C 
DOCKED: ENDBRANCH  12  44
DOCKED: BRANCH  17  46
DOCKED: ATOM     46  C   UNL d   1      12.561  -3.668   7.422 -0.20 +0.00    +0.004 C 
DOCKED: ATOM     47  C   UNL d   1      13.365  -3.095   6.517 -0.34 +0.00    +0.012 C 
DOCKED: ENDBRANCH  17  46
DOCKED: TORSDOF 10
DOCKED: TER
DOCKED: ENDMDL
________________________________________________________________________________


	BEGINNING GENETIC ALGORITHM DOCKING 85 of 100
Run: 85 Seed: 1560447214 931511079 [ Run 85 of 100 GA/GALS ]
Beginning LAMARCKIAN GENETIC ALGORITHM (LGA), with a maximum of 25000000 energy evaluations.

Final-Value: -11.601


	FINAL GENETIC ALGORITHM DOCKED STATE
	_______________________________________________


Detailed state:  trans 13.964 11.756 4.524 quatxyzw -0.746611 -0.561358 0.342288 -0.101430 center 8.287 34.468 -0.670 ntor 10 30.2932 -52.8802 54.0515 -101.0990 -171.6990 180.0000 -53.0130 91.3362 22.2281 -151.8409
State:	 13.964  11.756   4.524  -0.750 -0.564  0.344 -168.357     30.29  -52.88   54.05 -101.10 -171.70  180.00  -53.01   91.34   22.23 -151.84

DOCKED: MODEL       85
DOCKED: USER    Run = 85
DOCKED: USER    DPF = D:/Protein_go_brrr/autodock/final/mut_Y35F/heme_O2/dock.dpf
DOCKED: USER  
DOCKED: USER    Estimated Free Energy of Binding    =   -8.01 kcal/mol  [=(1)+(2)+(3)-(4)]
DOCKED: USER    Estimated Inhibition Constant, Ki   =    1.34 uM (micromolar)  [Temperature = 298.15 K]
DOCKED: USER    
DOCKED: USER    (1) Final Intermolecular Energy     =  -10.99 kcal/mol
DOCKED: USER        vdW + Hbond + desolv Energy     =   -8.13 kcal/mol
DOCKED: USER        Electrostatic Energy            =   -2.87 kcal/mol
DOCKED: USER    (2) Final Total Internal Energy     =   -0.61 kcal/mol
DOCKED: USER    (3) Torsional Free Energy           =   +2.98 kcal/mol
DOCKED: USER    (4) Unbound System's Energy  [=(2)] =   -0.61 kcal/mol
DOCKED: USER    
DOCKED: USER    
DOCKED: USER    NEWDPF move heme_O2_opt.pdbqt
DOCKED: USER    NEWDPF about 8.287000 34.468000 -0.670000
DOCKED: USER    NEWDPF tran0 13.964294 11.755602 4.523549
DOCKED: USER    NEWDPF quaternion0 -0.746611 -0.561358 0.342288 -0.101430
DOCKED: USER    NEWDPF axisangle0 -0.750481 -0.564269 0.344063 -168.356966
DOCKED: USER    NEWDPF quat0 -0.750481 -0.564269 0.344063 -168.356966
DOCKED: USER    NEWDPF dihe0 30.29 -52.88 54.05 -101.10 -171.70 180.00 -53.01 91.34 22.23 -151.84 
DOCKED: USER  keepresnum = 1 
DOCKED: USER  
DOCKED: REMARK  10 active torsions:
DOCKED: REMARK  status: ('A' for Active; 'I' for Inactive)
DOCKED: REMARK    1  A    between atoms: C_6  and  C_10 
DOCKED: REMARK    2  A    between atoms: C_10  and  C_11 
DOCKED: REMARK    3  A    between atoms: C_11  and  C_12 
DOCKED: REMARK    4  A    between atoms: C_12  and  O_14 
DOCKED: REMARK    5  A    between atoms: C_17  and  C_20 
DOCKED: REMARK    6  A    between atoms: C_24  and  C_27 
DOCKED: REMARK    7  A    between atoms: C_31  and  C_34 
DOCKED: REMARK    8  A    between atoms: C_34  and  C_35 
DOCKED: REMARK    9  A    between atoms: C_35  and  C_36 
DOCKED: REMARK   10  A    between atoms: C_36  and  O_38 
DOCKED: USER                              x       y       z     vdW  Elec       q    Type
DOCKED: USER                           _______ _______ _______ _____ _____    ______ ____
DOCKED: ROOT
DOCKED: ATOM      1  C   UNL d   1      14.674  10.034   5.540 -0.08 +0.01    +0.064 A 
DOCKED: ATOM      2  C   UNL d   1      10.420  11.190   3.772 -0.23 -0.01    +0.064 A 
DOCKED: ATOM      3  C   UNL d   1      12.079  15.461   2.323 -0.18 -0.02    +0.064 C 
DOCKED: ATOM      4  C   UNL d   1      16.581  14.091   3.711 -0.09 -0.00    +0.064 A 
DOCKED: ATOM      5  C   UNL d   1      13.382   9.999   5.176 -0.12 +0.01    +0.066 A 
DOCKED: ATOM      6  C   UNL d   1      12.523   8.928   5.438 -0.14 -0.00    -0.021 A 
DOCKED: ATOM      7  C   UNL d   1      11.303   9.243   4.888 -0.22 -0.00    -0.025 A 
DOCKED: ATOM      8  C   UNL d   1      11.436  10.519   4.348 -0.22 -0.00    +0.066 A 
DOCKED: ATOM      9  C   UNL d   1      10.098   8.328   4.873 -0.31 +0.01    +0.051 C 
DOCKED: ATOM     10  C   UNL d   1      10.493  12.539   3.209 -0.21 -0.01    +0.066 A 
DOCKED: ATOM     11  C   UNL d   1       9.371  13.252   2.771 -0.44 +0.00    -0.021 A 
DOCKED: ATOM     12  C   UNL d   1       9.827  14.493   2.366 -0.42 -0.00    +0.000 A 
DOCKED: ATOM     13  C   UNL d   1      11.234  14.461   2.573 -0.24 -0.02    +0.070 A 
DOCKED: ATOM     14  C   UNL d   1       7.922  12.779   2.766 -0.28 -0.00    +0.052 C 
DOCKED: ATOM     15  C   UNL d   1      13.513  15.457   2.485 -0.11 -0.02    +0.066 A 
DOCKED: ATOM     16  C   UNL d   1      14.361  16.476   2.052 -0.11 +0.01    -0.021 A 
DOCKED: ATOM     17  C   UNL d   1      15.650  16.107   2.436 -0.10 -0.00    +0.000 A 
DOCKED: ATOM     18  C   UNL d   1      15.490  14.875   3.085 -0.09 -0.01    +0.070 A 
DOCKED: ATOM     19  C   UNL d   1      13.877  17.671   1.269 -0.10 -0.04    +0.052 C 
DOCKED: ATOM     20  C   UNL d   1      16.469  12.887   4.304 +0.01 +0.01    +0.066 A 
DOCKED: ATOM     21  C   UNL d   1      17.530  12.205   4.892 +0.07 -0.01    -0.025 A 
DOCKED: ATOM     22  C   UNL d   1      17.000  11.059   5.442 -0.03 -0.01    -0.021 A 
DOCKED: ATOM     23  C   UNL d   1      15.633  11.076   5.153 -0.04 +0.02    +0.066 A 
DOCKED: ATOM     24  C   UNL d   1      18.977  12.623   4.925 -0.06 +0.01    +0.051 C 
DOCKED: ATOM     25  N   UNL d   1      12.734  10.957   4.468 -0.09 -0.00    -0.248 N 
DOCKED: ATOM     26  N   UNL d   1      11.631  13.267   3.081 -0.14 +0.05    -0.248 N 
DOCKED: ATOM     27  N   UNL d   1      14.198  14.460   3.040 -0.06 +0.04    -0.248 N 
DOCKED: ATOM     28  N   UNL d   1      15.322  12.166   4.422 -0.07 -0.04    -0.248 N 
DOCKED: ATOM     29 FE   UNL d   1      13.491  12.715   3.755 -0.04 -0.00    +0.000 Fe
DOCKED: ATOM     30  O   UNL d   1      13.111  11.697   2.641 -0.41 -0.00    +0.000 OA
DOCKED: ATOM     31  O   UNL d   1      14.423  12.557   2.498 -0.45 -0.00    +0.000 OA
DOCKED: ENDROOT
DOCKED: BRANCH   6  32
DOCKED: ATOM     32  C   UNL d   1      12.869   7.599   6.058 -0.15 +0.01    +0.052 C 
DOCKED: BRANCH  32  33
DOCKED: ATOM     33  C   UNL d   1      12.371   7.468   7.494 -0.09 +0.05    +0.115 C 
DOCKED: BRANCH  33  34
DOCKED: ATOM     34  C   UNL d   1      11.502   6.251   7.694 -0.11 +0.15    +0.139 C 
DOCKED: ATOM     35  O   UNL d   1      11.773   5.214   7.109 -0.34 -0.76    -0.650 OA
DOCKED: BRANCH  34  36
DOCKED: ATOM     36  O   UNL d   1      10.409   6.289   8.484 -0.20 -1.31    -0.776 OA
DOCKED: ATOM     37  H   UNL d   1       9.890   7.093   8.601 +0.04 +0.16    +0.167 HD
DOCKED: ENDBRANCH  34  36
DOCKED: ENDBRANCH  33  34
DOCKED: ENDBRANCH  32  33
DOCKED: ENDBRANCH   6  32
DOCKED: BRANCH  22  38
DOCKED: ATOM     38  C   UNL d   1      17.781   9.982   6.149 -0.07 +0.01    +0.052 C 
DOCKED: BRANCH  38  39
DOCKED: ATOM     39  C   UNL d   1      18.993   9.518   5.344 -0.10 +0.04    +0.115 C 
DOCKED: BRANCH  39  40
DOCKED: ATOM     40  C   UNL d   1      18.667   8.373   4.419 -0.21 +0.09    +0.139 C 
DOCKED: ATOM     41  O   UNL d   1      17.859   7.526   4.764 -0.03 -0.32    -0.650 OA
DOCKED: BRANCH  40  42
DOCKED: ATOM     42  O   UNL d   1      19.214   8.293   3.190 -0.50 -1.13    -0.776 OA
DOCKED: ATOM     43  H   UNL d   1      19.198   9.041   2.581 -0.40 +0.17    +0.167 HD
DOCKED: ENDBRANCH  40  42
DOCKED: ENDBRANCH  39  40
DOCKED: ENDBRANCH  38  39
DOCKED: ENDBRANCH  22  38
DOCKED: BRANCH  12  44
DOCKED: ATOM     44  C   UNL d   1       8.892  15.557   1.832 -0.40 -0.00    +0.004 C 
DOCKED: ATOM     45  C   UNL d   1       9.019  16.273   0.715 -0.39 -0.00    +0.012 C 
DOCKED: ENDBRANCH  12  44
DOCKED: BRANCH  17  46
DOCKED: ATOM     46  C   UNL d   1      16.980  16.770   2.197 -0.08 -0.00    +0.004 C 
DOCKED: ATOM     47  C   UNL d   1      17.964  16.382   1.375 -0.11 -0.00    +0.012 C 
DOCKED: ENDBRANCH  17  46
DOCKED: TORSDOF 10
DOCKED: TER
DOCKED: ENDMDL
________________________________________________________________________________


	BEGINNING GENETIC ALGORITHM DOCKING 86 of 100
Run: 86 Seed: 1757737737 307822310 [ Run 86 of 100 GA/GALS ]
Beginning LAMARCKIAN GENETIC ALGORITHM (LGA), with a maximum of 25000000 energy evaluations.

Final-Value: -10.235


	FINAL GENETIC ALGORITHM DOCKED STATE
	_______________________________________________


Detailed state:  trans 11.627 11.819 6.469 quatxyzw 0.610378 0.650624 0.424227 -0.155431 center 8.287 34.468 -0.670 ntor 10 132.8107 59.0658 -96.5711 42.4722 -128.2073 -130.6625 126.8635 -70.8931 -152.7219 -0.3010
State:	 11.627  11.819   6.469   0.618  0.659  0.429 -162.116    132.81   59.07  -96.57   42.47 -128.21 -130.66  126.86  -70.89 -152.72   -0.30

DOCKED: MODEL       86
DOCKED: USER    Run = 86
DOCKED: USER    DPF = D:/Protein_go_brrr/autodock/final/mut_Y35F/heme_O2/dock.dpf
DOCKED: USER  
DOCKED: USER    Estimated Free Energy of Binding    =   -6.44 kcal/mol  [=(1)+(2)+(3)-(4)]
DOCKED: USER    Estimated Inhibition Constant, Ki   =   19.13 uM (micromolar)  [Temperature = 298.15 K]
DOCKED: USER    
DOCKED: USER    (1) Final Intermolecular Energy     =   -9.42 kcal/mol
DOCKED: USER        vdW + Hbond + desolv Energy     =   -7.75 kcal/mol
DOCKED: USER        Electrostatic Energy            =   -1.67 kcal/mol
DOCKED: USER    (2) Final Total Internal Energy     =   -0.81 kcal/mol
DOCKED: USER    (3) Torsional Free Energy           =   +2.98 kcal/mol
DOCKED: USER    (4) Unbound System's Energy  [=(2)] =   -0.81 kcal/mol
DOCKED: USER    
DOCKED: USER    
DOCKED: USER    NEWDPF move heme_O2_opt.pdbqt
DOCKED: USER    NEWDPF about 8.287000 34.468000 -0.670000
DOCKED: USER    NEWDPF tran0 11.626876 11.819070 6.468520
DOCKED: USER    NEWDPF quaternion0 0.610378 0.650624 0.424227 -0.155431
DOCKED: USER    NEWDPF axisangle0 0.617887 0.658629 0.429446 -162.116448
DOCKED: USER    NEWDPF quat0 0.617887 0.658629 0.429446 -162.116448
DOCKED: USER    NEWDPF dihe0 132.81 59.07 -96.57 42.47 -128.21 -130.66 126.86 -70.89 -152.72 -0.30 
DOCKED: USER  keepresnum = 1 
DOCKED: USER  
DOCKED: REMARK  10 active torsions:
DOCKED: REMARK  status: ('A' for Active; 'I' for Inactive)
DOCKED: REMARK    1  A    between atoms: C_6  and  C_10 
DOCKED: REMARK    2  A    between atoms: C_10  and  C_11 
DOCKED: REMARK    3  A    between atoms: C_11  and  C_12 
DOCKED: REMARK    4  A    between atoms: C_12  and  O_14 
DOCKED: REMARK    5  A    between atoms: C_17  and  C_20 
DOCKED: REMARK    6  A    between atoms: C_24  and  C_27 
DOCKED: REMARK    7  A    between atoms: C_31  and  C_34 
DOCKED: REMARK    8  A    between atoms: C_34  and  C_35 
DOCKED: REMARK    9  A    between atoms: C_35  and  C_36 
DOCKED: REMARK   10  A    between atoms: C_36  and  O_38 
DOCKED: USER                              x       y       z     vdW  Elec       q    Type
DOCKED: USER                           _______ _______ _______ _____ _____    ______ ____
DOCKED: ROOT
DOCKED: ATOM      1  C   UNL d   1      11.836   9.734   6.798 -0.10 +0.01    +0.064 A 
DOCKED: ATOM      2  C   UNL d   1      12.456  12.452   2.953 -0.13 -0.01    +0.064 A 
DOCKED: ATOM      3  C   UNL d   1      11.176  16.379   5.408 -0.17 -0.01    +0.064 C 
DOCKED: ATOM      4  C   UNL d   1      10.996  13.668   9.493 -0.23 +0.01    +0.064 A 
DOCKED: ATOM      5  C   UNL d   1      12.111  10.153   5.552 -0.12 +0.01    +0.066 A 
DOCKED: ATOM      6  C   UNL d   1      12.501   9.307   4.510 -0.21 -0.00    -0.021 A 
DOCKED: ATOM      7  C   UNL d   1      12.723  10.098   3.408 -0.33 +0.00    -0.025 A 
DOCKED: ATOM      8  C   UNL d   1      12.415  11.400   3.794 -0.21 -0.01    +0.066 A 
DOCKED: ATOM      9  C   UNL d   1      13.233   9.600   2.073 -0.51 -0.00    +0.051 C 
DOCKED: ATOM     10  C   UNL d   1      12.123  13.836   3.294 -0.17 -0.01    +0.066 A 
DOCKED: ATOM     11  C   UNL d   1      12.024  14.859   2.345 -0.21 +0.01    -0.021 A 
DOCKED: ATOM     12  C   UNL d   1      11.639  15.996   3.031 -0.12 -0.00    +0.000 A 
DOCKED: ATOM     13  C   UNL d   1      11.534  15.595   4.392 -0.12 -0.01    +0.070 A 
DOCKED: ATOM     14  C   UNL d   1      12.261  14.751   0.843 -0.36 -0.03    +0.052 C 
DOCKED: ATOM     15  C   UNL d   1      11.092  16.021   6.804 -0.16 -0.01    +0.066 A 
DOCKED: ATOM     16  C   UNL d   1      10.872  16.927   7.841 -0.10 +0.00    -0.021 A 
DOCKED: ATOM     17  C   UNL d   1      10.817  16.177   9.015 -0.23 +0.00    +0.000 A 
DOCKED: ATOM     18  C   UNL d   1      11.009  14.851   8.601 -0.22 +0.01    +0.070 A 
DOCKED: ATOM     19  C   UNL d   1      10.789  18.418   7.627 -0.14 -0.01    +0.052 C 
DOCKED: ATOM     20  C   UNL d   1      11.219  12.388   9.135 -0.18 +0.01    +0.066 A 
DOCKED: ATOM     21  C   UNL d   1      11.176  11.313  10.017 -0.17 -0.01    -0.025 A 
DOCKED: ATOM     22  C   UNL d   1      11.386  10.181   9.262 -0.14 -0.01    -0.021 A 
DOCKED: ATOM     23  C   UNL d   1      11.569  10.611   7.944 -0.10 +0.01    +0.066 A 
DOCKED: ATOM     24  C   UNL d   1      10.950  11.363  11.506 -0.16 +0.02    +0.051 C 
DOCKED: ATOM     25  N   UNL d   1      12.102  11.442   5.132 -0.08 -0.00    -0.248 N 
DOCKED: ATOM     26  N   UNL d   1      11.835  14.281   4.543 -0.07 +0.03    -0.248 N 
DOCKED: ATOM     27  N   UNL d   1      11.249  14.784   7.266 -0.11 +0.01    -0.248 N 
DOCKED: ATOM     28  N   UNL d   1      11.511  11.957   7.879 +0.05 -0.03    -0.248 N 
DOCKED: ATOM     29 FE   UNL d   1      11.672  13.113   6.225 -0.04 +0.00    +0.000 Fe
DOCKED: ATOM     30  O   UNL d   1      13.159  13.023   5.774 -0.09 +0.00    +0.000 OA
DOCKED: ATOM     31  O   UNL d   1      12.811  13.549   7.218 -0.09 +0.00    +0.000 OA
DOCKED: ENDROOT
DOCKED: BRANCH   6  32
DOCKED: ATOM     32  C   UNL d   1      12.788   7.830   4.579 -0.28 +0.01    +0.052 C 
DOCKED: BRANCH  32  33
DOCKED: ATOM     33  C   UNL d   1      14.053   7.509   5.369 -0.16 +0.03    +0.115 C 
DOCKED: BRANCH  33  34
DOCKED: ATOM     34  C   UNL d   1      15.263   8.237   4.838 -0.12 +0.04    +0.139 C 
DOCKED: ATOM     35  O   UNL d   1      15.452   9.401   5.151 -0.48 -0.25    -0.650 OA
DOCKED: BRANCH  34  36
DOCKED: ATOM     36  O   UNL d   1      16.132   7.637   3.998 +0.06 -0.26    -0.776 OA
DOCKED: ATOM     37  H   UNL d   1      16.446   8.069   3.195 -0.30 +0.04    +0.167 HD
DOCKED: ENDBRANCH  34  36
DOCKED: ENDBRANCH  33  34
DOCKED: ENDBRANCH  32  33
DOCKED: ENDBRANCH   6  32
DOCKED: BRANCH  22  38
DOCKED: ATOM     38  C   UNL d   1      11.470   8.773   9.794 -0.10 +0.02    +0.052 C 
DOCKED: BRANCH  38  39
DOCKED: ATOM     39  C   UNL d   1      10.181   7.987   9.567 -0.14 +0.07    +0.115 C 
DOCKED: BRANCH  39  40
DOCKED: ATOM     40  C   UNL d   1      10.329   6.932   8.499 -0.14 +0.15    +0.139 C 
DOCKED: ATOM     41  O   UNL d   1      11.442   6.615   8.111 -0.15 -0.67    -0.650 OA
DOCKED: BRANCH  40  42
DOCKED: ATOM     42  O   UNL d   1       9.254   6.293   7.998 -0.25 -0.93    -0.776 OA
DOCKED: ATOM     43  H   UNL d   1       8.556   6.769   7.532 +0.07 +0.11    +0.167 HD
DOCKED: ENDBRANCH  40  42
DOCKED: ENDBRANCH  39  40
DOCKED: ENDBRANCH  38  39
DOCKED: ENDBRANCH  22  38
DOCKED: BRANCH  12  44
DOCKED: ATOM     44  C   UNL d   1      11.418  17.321   2.332 -0.11 -0.00    +0.004 C 
DOCKED: ATOM     45  C   UNL d   1      10.355  17.708   1.627 -0.15 -0.00    +0.012 C 
DOCKED: ENDBRANCH  12  44
DOCKED: BRANCH  17  46
DOCKED: ATOM     46  C   UNL d   1      10.663  16.600  10.452 -0.23 +0.00    +0.004 C 
DOCKED: ATOM     47  C   UNL d   1       9.934  17.609  10.944 -0.22 +0.00    +0.012 C 
DOCKED: ENDBRANCH  17  46
DOCKED: TORSDOF 10
DOCKED: TER
DOCKED: ENDMDL
________________________________________________________________________________


	BEGINNING GENETIC ALGORITHM DOCKING 87 of 100
Run: 87 Seed: 749909137 1597690984 [ Run 87 of 100 GA/GALS ]
Beginning LAMARCKIAN GENETIC ALGORITHM (LGA), with a maximum of 25000000 energy evaluations.

Final-Value: -9.844


	FINAL GENETIC ALGORITHM DOCKED STATE
	_______________________________________________


Detailed state:  trans 3.770 3.470 -15.693 quatxyzw 0.728600 0.473406 -0.289773 0.401322 center 8.287 34.468 -0.670 ntor 10 112.0939 126.6587 3.3016 125.8021 -77.3946 -94.9647 74.3238 -64.7304 27.9792 -2.0195
State:	  3.770   3.470 -15.693   0.795  0.517 -0.316 132.678    112.09  126.66    3.30  125.80  -77.39  -94.96   74.32  -64.73   27.98   -2.02

DOCKED: MODEL       87
DOCKED: USER    Run = 87
DOCKED: USER    DPF = D:/Protein_go_brrr/autodock/final/mut_Y35F/heme_O2/dock.dpf
DOCKED: USER  
DOCKED: USER    Estimated Free Energy of Binding    =   -4.30 kcal/mol  [=(1)+(2)+(3)-(4)]
DOCKED: USER    Estimated Inhibition Constant, Ki   =  709.20 uM (micromolar)  [Temperature = 298.15 K]
DOCKED: USER    
DOCKED: USER    (1) Final Intermolecular Energy     =   -7.28 kcal/mol
DOCKED: USER        vdW + Hbond + desolv Energy     =   -6.30 kcal/mol
DOCKED: USER        Electrostatic Energy            =   -0.98 kcal/mol
DOCKED: USER    (2) Final Total Internal Energy     =   -2.56 kcal/mol
DOCKED: USER    (3) Torsional Free Energy           =   +2.98 kcal/mol
DOCKED: USER    (4) Unbound System's Energy  [=(2)] =   -2.56 kcal/mol
DOCKED: USER    
DOCKED: USER    
DOCKED: USER    NEWDPF move heme_O2_opt.pdbqt
DOCKED: USER    NEWDPF about 8.287000 34.468000 -0.670000
DOCKED: USER    NEWDPF tran0 3.770431 3.469960 -15.692928
DOCKED: USER    NEWDPF quaternion0 0.728600 0.473406 -0.289773 0.401322
DOCKED: USER    NEWDPF axisangle0 0.795470 0.516855 -0.316368 132.678279
DOCKED: USER    NEWDPF quat0 0.795470 0.516855 -0.316368 132.678279
DOCKED: USER    NEWDPF dihe0 112.09 126.66 3.30 125.80 -77.39 -94.96 74.32 -64.73 27.98 -2.02 
DOCKED: USER  keepresnum = 1 
DOCKED: USER  
DOCKED: REMARK  10 active torsions:
DOCKED: REMARK  status: ('A' for Active; 'I' for Inactive)
DOCKED: REMARK    1  A    between atoms: C_6  and  C_10 
DOCKED: REMARK    2  A    between atoms: C_10  and  C_11 
DOCKED: REMARK    3  A    between atoms: C_11  and  C_12 
DOCKED: REMARK    4  A    between atoms: C_12  and  O_14 
DOCKED: REMARK    5  A    between atoms: C_17  and  C_20 
DOCKED: REMARK    6  A    between atoms: C_24  and  C_27 
DOCKED: REMARK    7  A    between atoms: C_31  and  C_34 
DOCKED: REMARK    8  A    between atoms: C_34  and  C_35 
DOCKED: REMARK    9  A    between atoms: C_35  and  C_36 
DOCKED: REMARK   10  A    between atoms: C_36  and  O_38 
DOCKED: USER                              x       y       z     vdW  Elec       q    Type
DOCKED: USER                           _______ _______ _______ _____ _____    ______ ____
DOCKED: ROOT
DOCKED: ATOM      1  C   UNL d   1       3.970   1.358 -15.723 -0.03 +0.00    +0.064 A 
DOCKED: ATOM      2  C   UNL d   1       0.200   4.219 -15.320 -0.09 -0.00    +0.064 A 
DOCKED: ATOM      3  C   UNL d   1       3.015   8.109 -15.514 -0.17 -0.02    +0.064 C 
DOCKED: ATOM      4  C   UNL d   1       6.853   5.187 -16.410 -0.22 -0.01    +0.064 A 
DOCKED: ATOM      5  C   UNL d   1       2.714   1.819 -15.600 -0.08 +0.00    +0.066 A 
DOCKED: ATOM      6  C   UNL d   1       1.588   1.000 -15.484 -0.10 -0.00    -0.021 A 
DOCKED: ATOM      7  C   UNL d   1       0.491   1.827 -15.411 -0.10 -0.00    -0.025 A 
DOCKED: ATOM      8  C   UNL d   1       0.983   3.129 -15.435 -0.06 -0.00    +0.066 A 
DOCKED: ATOM      9  C   UNL d   1      -0.946   1.357 -15.353 -0.06 +0.00    +0.051 C 
DOCKED: ATOM     10  C   UNL d   1       0.660   5.609 -15.315 -0.17 -0.00    +0.066 A 
DOCKED: ATOM     11  C   UNL d   1      -0.175   6.695 -15.029 -0.19 +0.00    -0.021 A 
DOCKED: ATOM     12  C   UNL d   1       0.622   7.824 -15.063 -0.24 -0.00    +0.000 A 
DOCKED: ATOM     13  C   UNL d   1       1.925   7.354 -15.387 -0.21 -0.01    +0.070 A 
DOCKED: ATOM     14  C   UNL d   1      -1.665   6.654 -14.710 -0.14 -0.00    +0.052 C 
DOCKED: ATOM     15  C   UNL d   1       4.344   7.676 -15.875 -0.10 -0.02    +0.066 A 
DOCKED: ATOM     16  C   UNL d   1       5.407   8.535 -16.154 -0.22 +0.00    -0.021 A 
DOCKED: ATOM     17  C   UNL d   1       6.511   7.724 -16.413 -0.22 -0.00    +0.000 A 
DOCKED: ATOM     18  C   UNL d   1       6.034   6.414 -16.269 -0.25 -0.01    +0.070 A 
DOCKED: ATOM     19  C   UNL d   1       5.261  10.036 -16.202 -0.18 -0.00    +0.052 C 
DOCKED: ATOM     20  C   UNL d   1       6.417   3.915 -16.321 -0.23 -0.01    +0.066 A 
DOCKED: ATOM     21  C   UNL d   1       7.240   2.798 -16.445 -0.16 +0.00    -0.025 A 
DOCKED: ATOM     22  C   UNL d   1       6.440   1.699 -16.225 -0.16 +0.00    -0.021 A 
DOCKED: ATOM     23  C   UNL d   1       5.151   2.187 -15.992 -0.15 -0.00    +0.066 A 
DOCKED: ATOM     24  C   UNL d   1       8.713   2.781 -16.761 -0.17 -0.00    +0.051 C 
DOCKED: ATOM     25  N   UNL d   1       2.347   3.124 -15.617 -0.03 +0.00    -0.248 N 
DOCKED: ATOM     26  N   UNL d   1       1.938   6.005 -15.543 -0.16 +0.04    -0.248 N 
DOCKED: ATOM     27  N   UNL d   1       4.700   6.403 -16.017 -0.17 +0.05    -0.248 N 
DOCKED: ATOM     28  N   UNL d   1       5.133   3.532 -16.096 -0.17 +0.01    -0.248 N 
DOCKED: ATOM     29 FE   UNL d   1       3.549   4.762 -15.822 -0.05 -0.00    +0.000 Fe
DOCKED: ATOM     30  O   UNL d   1       2.599   4.524 -17.032 -0.12 -0.00    +0.000 OA
DOCKED: ATOM     31  O   UNL d   1       4.081   4.996 -17.284 -0.12 -0.00    +0.000 OA
DOCKED: ENDROOT
DOCKED: BRANCH   6  32
DOCKED: ATOM     32  C   UNL d   1       1.526  -0.503 -15.578 -0.06 +0.00    +0.052 C 
DOCKED: BRANCH  32  33
DOCKED: ATOM     33  C   UNL d   1       1.175  -1.165 -14.249 -0.10 +0.02    +0.115 C 
DOCKED: BRANCH  33  34
DOCKED: ATOM     34  C   UNL d   1       2.355  -1.872 -13.630 -0.13 +0.06    +0.139 C 
DOCKED: ATOM     35  O   UNL d   1       2.621  -1.684 -12.453 -0.45 -0.40    -0.650 OA
DOCKED: BRANCH  34  36
DOCKED: ATOM     36  O   UNL d   1       3.144  -2.690 -14.356 +0.09 -0.42    -0.776 OA
DOCKED: ATOM     37  H   UNL d   1       4.062  -2.470 -14.556 +0.03 +0.08    +0.167 HD
DOCKED: ENDBRANCH  34  36
DOCKED: ENDBRANCH  33  34
DOCKED: ENDBRANCH  32  33
DOCKED: ENDBRANCH   6  32
DOCKED: BRANCH  22  38
DOCKED: ATOM     38  C   UNL d   1       6.884   0.261 -16.301 -0.12 +0.00    +0.052 C 
DOCKED: BRANCH  38  39
DOCKED: ATOM     39  C   UNL d   1       7.155  -0.337 -14.922 -0.17 +0.01    +0.115 C 
DOCKED: BRANCH  39  40
DOCKED: ATOM     40  C   UNL d   1       6.185  -1.437 -14.570 -0.15 +0.03    +0.139 C 
DOCKED: ATOM     41  O   UNL d   1       5.976  -2.338 -15.366 +0.02 -0.13    -0.650 OA
DOCKED: BRANCH  40  42
DOCKED: ATOM     42  O   UNL d   1       5.580  -1.472 -13.367 +0.01 -0.33    -0.776 OA
DOCKED: ATOM     43  H   UNL d   1       4.624  -1.573 -13.286 +0.05 +0.09    +0.167 HD
DOCKED: ENDBRANCH  40  42
DOCKED: ENDBRANCH  39  40
DOCKED: ENDBRANCH  38  39
DOCKED: ENDBRANCH  22  38
DOCKED: BRANCH  12  44
DOCKED: ATOM     44  C   UNL d   1       0.069   9.207 -14.791 -0.23 -0.00    +0.004 C 
DOCKED: ATOM     45  C   UNL d   1       0.729  10.364 -14.773 -0.21 -0.00    +0.012 C 
DOCKED: ENDBRANCH  12  44
DOCKED: BRANCH  17  46
DOCKED: ATOM     46  C   UNL d   1       7.917   8.071 -16.828 -0.15 -0.00    +0.004 C 
DOCKED: ATOM     47  C   UNL d   1       9.059   7.819 -16.176 -0.20 -0.00    +0.012 C 
DOCKED: ENDBRANCH  17  46
DOCKED: TORSDOF 10
DOCKED: TER
DOCKED: ENDMDL
________________________________________________________________________________


	BEGINNING GENETIC ALGORITHM DOCKING 88 of 100
Run: 88 Seed: 1876679150 1577727142 [ Run 88 of 100 GA/GALS ]
Beginning LAMARCKIAN GENETIC ALGORITHM (LGA), with a maximum of 25000000 energy evaluations.

Final-Value: -9.580


	FINAL GENETIC ALGORITHM DOCKED STATE
	_______________________________________________


Detailed state:  trans 18.756 -6.720 -8.012 quatxyzw 0.159049 -0.607864 -0.664192 0.405035 center 8.287 34.468 -0.670 ntor 10 63.6090 48.2867 124.8181 -106.5526 54.6311 -44.1529 179.5829 148.8710 -167.6008 -169.2595
State:	 18.756  -6.720  -8.012   0.174 -0.665 -0.726 132.213     63.61   48.29  124.82 -106.55   54.63  -44.15  179.58  148.87 -167.60 -169.26

DOCKED: MODEL       88
DOCKED: USER    Run = 88
DOCKED: USER    DPF = D:/Protein_go_brrr/autodock/final/mut_Y35F/heme_O2/dock.dpf
DOCKED: USER  
DOCKED: USER    Estimated Free Energy of Binding    =   -4.84 kcal/mol  [=(1)+(2)+(3)-(4)]
DOCKED: USER    Estimated Inhibition Constant, Ki   =  285.18 uM (micromolar)  [Temperature = 298.15 K]
DOCKED: USER    
DOCKED: USER    (1) Final Intermolecular Energy     =   -7.82 kcal/mol
DOCKED: USER        vdW + Hbond + desolv Energy     =   -5.32 kcal/mol
DOCKED: USER        Electrostatic Energy            =   -2.50 kcal/mol
DOCKED: USER    (2) Final Total Internal Energy     =   -1.76 kcal/mol
DOCKED: USER    (3) Torsional Free Energy           =   +2.98 kcal/mol
DOCKED: USER    (4) Unbound System's Energy  [=(2)] =   -1.76 kcal/mol
DOCKED: USER    
DOCKED: USER    
DOCKED: USER    NEWDPF move heme_O2_opt.pdbqt
DOCKED: USER    NEWDPF about 8.287000 34.468000 -0.670000
DOCKED: USER    NEWDPF tran0 18.756442 -6.719771 -8.011929
DOCKED: USER    NEWDPF quaternion0 0.159049 -0.607864 -0.664192 0.405035
DOCKED: USER    NEWDPF axisangle0 0.173956 -0.664840 -0.726448 132.213351
DOCKED: USER    NEWDPF quat0 0.173956 -0.664840 -0.726448 132.213351
DOCKED: USER    NEWDPF dihe0 63.61 48.29 124.82 -106.55 54.63 -44.15 179.58 148.87 -167.60 -169.26 
DOCKED: USER  keepresnum = 1 
DOCKED: USER  
DOCKED: REMARK  10 active torsions:
DOCKED: REMARK  status: ('A' for Active; 'I' for Inactive)
DOCKED: REMARK    1  A    between atoms: C_6  and  C_10 
DOCKED: REMARK    2  A    between atoms: C_10  and  C_11 
DOCKED: REMARK    3  A    between atoms: C_11  and  C_12 
DOCKED: REMARK    4  A    between atoms: C_12  and  O_14 
DOCKED: REMARK    5  A    between atoms: C_17  and  C_20 
DOCKED: REMARK    6  A    between atoms: C_24  and  C_27 
DOCKED: REMARK    7  A    between atoms: C_31  and  C_34 
DOCKED: REMARK    8  A    between atoms: C_34  and  C_35 
DOCKED: REMARK    9  A    between atoms: C_35  and  C_36 
DOCKED: REMARK   10  A    between atoms: C_36  and  O_38 
DOCKED: USER                              x       y       z     vdW  Elec       q    Type
DOCKED: USER                           _______ _______ _______ _____ _____    ______ ____
DOCKED: ROOT
DOCKED: ATOM      1  C   UNL d   1      19.253  -8.073  -6.456 -0.05 +0.04    +0.064 A 
DOCKED: ATOM      2  C   UNL d   1      21.560  -4.380  -8.353 -0.06 +0.01    +0.064 A 
DOCKED: ATOM      3  C   UNL d   1      17.976  -3.622 -11.464 -0.28 -0.02    +0.064 C 
DOCKED: ATOM      4  C   UNL d   1      15.383  -7.120  -9.204 -0.08 +0.01    +0.064 A 
DOCKED: ATOM      5  C   UNL d   1      20.172  -7.129  -6.717 -0.05 +0.03    +0.066 A 
DOCKED: ATOM      6  C   UNL d   1      21.391  -7.016  -6.042 -0.02 -0.01    -0.021 A 
DOCKED: ATOM      7  C   UNL d   1      22.041  -5.920  -6.561 -0.03 -0.00    -0.025 A 
DOCKED: ATOM      8  C   UNL d   1      21.222  -5.424  -7.572 -0.05 +0.01    +0.066 A 
DOCKED: ATOM      9  C   UNL d   1      23.367  -5.386  -6.067 -0.01 +0.00    +0.051 C 
DOCKED: ATOM     10  C   UNL d   1      20.753  -3.829  -9.443 -0.09 +0.00    +0.066 A 
DOCKED: ATOM     11  C   UNL d   1      21.221  -2.851 -10.328 -0.09 +0.00    -0.021 A 
DOCKED: ATOM     12  C   UNL d   1      20.209  -2.632 -11.244 -0.19 -0.00    +0.000 A 
DOCKED: ATOM     13  C   UNL d   1      19.152  -3.499 -10.849 -0.19 -0.01    +0.070 A 
DOCKED: ATOM     14  C   UNL d   1      22.587  -2.174 -10.317 -0.04 -0.01    +0.052 C 
DOCKED: ATOM     15  C   UNL d   1      16.868  -4.461 -11.076 -0.23 -0.01    +0.066 A 
DOCKED: ATOM     16  C   UNL d   1      15.604  -4.424 -11.664 -0.25 +0.01    -0.021 A 
DOCKED: ATOM     17  C   UNL d   1      14.847  -5.412 -11.035 -0.16 -0.00    +0.000 A 
DOCKED: ATOM     18  C   UNL d   1      15.719  -5.988 -10.100 -0.13 +0.01    +0.070 A 
DOCKED: ATOM     19  C   UNL d   1      15.219  -3.422 -12.724 -0.19 -0.04    +0.052 C 
DOCKED: ATOM     20  C   UNL d   1      16.180  -7.667  -8.266 -0.07 +0.03    +0.066 A 
DOCKED: ATOM     21  C   UNL d   1      15.815  -8.745  -7.464 -0.05 -0.01    -0.025 A 
DOCKED: ATOM     22  C   UNL d   1      16.915  -9.048  -6.694 -0.05 -0.01    -0.021 A 
DOCKED: ATOM     23  C   UNL d   1      17.909  -8.128  -7.043 -0.04 +0.05    +0.066 A 
DOCKED: ATOM     24  C   UNL d   1      14.483  -9.448  -7.432 -0.04 +0.00    +0.051 C 
DOCKED: ATOM     25  N   UNL d   1      20.042  -6.129  -7.623 -0.05 -0.11    -0.248 N 
DOCKED: ATOM     26  N   UNL d   1      19.490  -4.220  -9.751 -0.08 -0.02    -0.248 N 
DOCKED: ATOM     27  N   UNL d   1      16.916  -5.349 -10.087 -0.11 -0.02    -0.248 N 
DOCKED: ATOM     28  N   UNL d   1      17.443  -7.263  -7.967 -0.05 -0.19    -0.248 N 
DOCKED: ATOM     29 FE   UNL d   1      18.457  -5.752  -8.853 -0.03 +0.00    +0.000 Fe
DOCKED: ATOM     30  O   UNL d   1      18.672  -4.669  -7.756 -0.04 +0.00    +0.000 OA
DOCKED: ATOM     31  O   UNL d   1      17.210  -5.123  -8.130 -0.81 +0.00    +0.000 OA
DOCKED: ENDROOT
DOCKED: BRANCH   6  32
DOCKED: ATOM     32  C   UNL d   1      21.870  -7.819  -4.861 -0.01 +0.01    +0.052 C 
DOCKED: BRANCH  32  33
DOCKED: ATOM     33  C   UNL d   1      21.356  -7.280  -3.530 -0.02 +0.03    +0.115 C 
DOCKED: BRANCH  33  34
DOCKED: ATOM     34  C   UNL d   1      20.534  -6.026  -3.696 -0.11 +0.07    +0.139 C 
DOCKED: ATOM     35  O   UNL d   1      21.061  -4.935  -3.546 -0.00 -0.22    -0.650 OA
DOCKED: BRANCH  34  36
DOCKED: ATOM     36  O   UNL d   1      19.216  -6.081  -3.980 -0.17 -1.06    -0.776 OA
DOCKED: ATOM     37  H   UNL d   1      18.578  -6.468  -3.370 +0.02 +0.23    +0.167 HD
DOCKED: ENDBRANCH  34  36
DOCKED: ENDBRANCH  33  34
DOCKED: ENDBRANCH  32  33
DOCKED: ENDBRANCH   6  32
DOCKED: BRANCH  22  38
DOCKED: ATOM     38  C   UNL d   1      16.979 -10.120  -5.637 -0.03 +0.01    +0.052 C 
DOCKED: BRANCH  38  39
DOCKED: ATOM     39  C   UNL d   1      16.091  -9.807  -4.436 -0.05 +0.03    +0.115 C 
DOCKED: BRANCH  39  40
DOCKED: ATOM     40  C   UNL d   1      15.985  -8.327  -4.167 -0.04 +0.13    +0.139 C 
DOCKED: ATOM     41  O   UNL d   1      14.998  -7.713  -4.537 -0.11 -0.61    -0.650 OA
DOCKED: BRANCH  40  42
DOCKED: ATOM     42  O   UNL d   1      16.941  -7.675  -3.477 -0.50 -1.06    -0.776 OA
DOCKED: ATOM     43  H   UNL d   1      17.874  -7.752  -3.712 +0.01 +0.21    +0.167 HD
DOCKED: ENDBRANCH  40  42
DOCKED: ENDBRANCH  39  40
DOCKED: ENDBRANCH  38  39
DOCKED: ENDBRANCH  22  38
DOCKED: BRANCH  12  44
DOCKED: ATOM     44  C   UNL d   1      20.350  -1.635 -12.375 -0.15 -0.00    +0.004 C 
DOCKED: ATOM     45  C   UNL d   1      20.578  -0.325 -12.288 -0.25 -0.00    +0.012 C 
DOCKED: ENDBRANCH  12  44
DOCKED: BRANCH  17  46
DOCKED: ATOM     46  C   UNL d   1      13.403  -5.805 -11.199 -0.15 -0.00    +0.004 C 
DOCKED: ATOM     47  C   UNL d   1      12.407  -5.686 -10.312 -0.18 -0.00    +0.012 C 
DOCKED: ENDBRANCH  17  46
DOCKED: TORSDOF 10
DOCKED: TER
DOCKED: ENDMDL
________________________________________________________________________________


	BEGINNING GENETIC ALGORITHM DOCKING 89 of 100
Run: 89 Seed: 442094749 439372483 [ Run 89 of 100 GA/GALS ]
Beginning LAMARCKIAN GENETIC ALGORITHM (LGA), with a maximum of 25000000 energy evaluations.

Final-Value: -10.716


	FINAL GENETIC ALGORITHM DOCKED STATE
	_______________________________________________


Detailed state:  trans 16.694 6.364 5.241 quatxyzw 0.858316 0.001542 0.009444 0.513032 center 8.287 34.468 -0.670 ntor 10 76.9691 141.6158 48.4216 -114.6588 -124.2888 -102.6020 132.5727 -90.0530 26.5188 -9.3402
State:	 16.694   6.364   5.241   1.000  0.002  0.011 118.268     76.97  141.62   48.42 -114.66 -124.29 -102.60  132.57  -90.05   26.52   -9.34

DOCKED: MODEL       89
DOCKED: USER    Run = 89
DOCKED: USER    DPF = D:/Protein_go_brrr/autodock/final/mut_Y35F/heme_O2/dock.dpf
DOCKED: USER  
DOCKED: USER    Estimated Free Energy of Binding    =   -5.49 kcal/mol  [=(1)+(2)+(3)-(4)]
DOCKED: USER    Estimated Inhibition Constant, Ki   =   94.85 uM (micromolar)  [Temperature = 298.15 K]
DOCKED: USER    
DOCKED: USER    (1) Final Intermolecular Energy     =   -8.47 kcal/mol
DOCKED: USER        vdW + Hbond + desolv Energy     =   -6.34 kcal/mol
DOCKED: USER        Electrostatic Energy            =   -2.13 kcal/mol
DOCKED: USER    (2) Final Total Internal Energy     =   -2.25 kcal/mol
DOCKED: USER    (3) Torsional Free Energy           =   +2.98 kcal/mol
DOCKED: USER    (4) Unbound System's Energy  [=(2)] =   -2.25 kcal/mol
DOCKED: USER    
DOCKED: USER    
DOCKED: USER    NEWDPF move heme_O2_opt.pdbqt
DOCKED: USER    NEWDPF about 8.287000 34.468000 -0.670000
DOCKED: USER    NEWDPF tran0 16.693725 6.364183 5.240821
DOCKED: USER    NEWDPF quaternion0 0.858316 0.001542 0.009444 0.513032
DOCKED: USER    NEWDPF axisangle0 0.999938 0.001796 0.011003 118.268043
DOCKED: USER    NEWDPF quat0 0.999938 0.001796 0.011003 118.268043
DOCKED: USER    NEWDPF dihe0 76.97 141.62 48.42 -114.66 -124.29 -102.60 132.57 -90.05 26.52 -9.34 
DOCKED: USER  keepresnum = 1 
DOCKED: USER  
DOCKED: REMARK  10 active torsions:
DOCKED: REMARK  status: ('A' for Active; 'I' for Inactive)
DOCKED: REMARK    1  A    between atoms: C_6  and  C_10 
DOCKED: REMARK    2  A    between atoms: C_10  and  C_11 
DOCKED: REMARK    3  A    between atoms: C_11  and  C_12 
DOCKED: REMARK    4  A    between atoms: C_12  and  O_14 
DOCKED: REMARK    5  A    between atoms: C_17  and  C_20 
DOCKED: REMARK    6  A    between atoms: C_24  and  C_27 
DOCKED: REMARK    7  A    between atoms: C_31  and  C_34 
DOCKED: REMARK    8  A    between atoms: C_34  and  C_35 
DOCKED: REMARK    9  A    between atoms: C_35  and  C_36 
DOCKED: REMARK   10  A    between atoms: C_36  and  O_38 
DOCKED: USER                              x       y       z     vdW  Elec       q    Type
DOCKED: USER                           _______ _______ _______ _____ _____    ______ ____
DOCKED: ROOT
DOCKED: ATOM      1  C   UNL d   1      14.820   5.388   5.056 -0.21 +0.02    +0.064 A 
DOCKED: ATOM      2  C   UNL d   1      16.015   9.936   5.724 -0.03 +0.02    +0.064 A 
DOCKED: ATOM      3  C   UNL d   1      20.684   8.799   5.763 -0.05 +0.02    +0.064 C 
DOCKED: ATOM      4  C   UNL d   1      19.487   4.186   4.599 -0.11 +0.04    +0.064 A 
DOCKED: ATOM      5  C   UNL d   1      14.764   6.718   5.233 -0.16 +0.02    +0.066 A 
DOCKED: ATOM      6  C   UNL d   1      13.575   7.448   5.307 -0.19 -0.01    -0.021 A 
DOCKED: ATOM      7  C   UNL d   1      13.920   8.771   5.457 -0.13 -0.01    -0.025 A 
DOCKED: ATOM      8  C   UNL d   1      15.311   8.806   5.518 -0.09 +0.02    +0.066 A 
DOCKED: ATOM      9  C   UNL d   1      12.939   9.922   5.504 -0.13 +0.01    +0.051 C 
DOCKED: ATOM     10  C   UNL d   1      17.472  10.032   5.821 -0.07 +0.02    +0.066 A 
DOCKED: ATOM     11  C   UNL d   1      18.143  11.201   6.197 -0.05 -0.00    -0.021 A 
DOCKED: ATOM     12  C   UNL d   1      19.489  10.888   6.232 -0.03 +0.00    +0.000 A 
DOCKED: ATOM     13  C   UNL d   1      19.567   9.519   5.854 -0.05 +0.02    +0.070 A 
DOCKED: ATOM     14  C   UNL d   1      17.523  12.551   6.536 -0.03 +0.01    +0.052 C 
DOCKED: ATOM     15  C   UNL d   1      20.808   7.421   5.351 -0.08 +0.04    +0.066 A 
DOCKED: ATOM     16  C   UNL d   1      22.020   6.772   5.118 -0.07 -0.01    -0.021 A 
DOCKED: ATOM     17  C   UNL d   1      21.703   5.455   4.784 -0.07 +0.00    +0.000 A 
DOCKED: ATOM     18  C   UNL d   1      20.304   5.399   4.841 -0.02 +0.05    +0.070 A 
DOCKED: ATOM     19  C   UNL d   1      23.354   7.472   5.180 -0.03 +0.02    +0.052 C 
DOCKED: ATOM     20  C   UNL d   1      18.142   4.107   4.604 -0.18 +0.03    +0.066 A 
DOCKED: ATOM     21  C   UNL d   1      17.429   2.932   4.387 -0.24 -0.01    -0.025 A 
DOCKED: ATOM     22  C   UNL d   1      16.098   3.250   4.540 -0.32 -0.01    -0.021 A 
DOCKED: ATOM     23  C   UNL d   1      16.048   4.617   4.828 -0.22 +0.02    +0.066 A 
DOCKED: ATOM     24  C   UNL d   1      17.988   1.575   4.047 -0.31 +0.01    +0.051 C 
DOCKED: ATOM     25  N   UNL d   1      15.832   7.549   5.315 -0.09 -0.07    -0.248 N 
DOCKED: ATOM     26  N   UNL d   1      18.335   9.007   5.601 -0.06 -0.09    -0.248 N 
DOCKED: ATOM     27  N   UNL d   1      19.774   6.619   5.113 -0.09 -0.16    -0.248 N 
DOCKED: ATOM     28  N   UNL d   1      17.290   5.143   4.821 -0.12 -0.10    -0.248 N 
DOCKED: ATOM     29 FE   UNL d   1      17.811   7.060   5.208 -0.03 +0.00    +0.000 Fe
DOCKED: ATOM     30  O   UNL d   1      17.306   7.901   3.999 -0.31 +0.00    +0.000 OA
DOCKED: ATOM     31  O   UNL d   1      18.317   6.717   3.759 -0.44 +0.00    +0.000 OA
DOCKED: ENDROOT
DOCKED: BRANCH   6  32
DOCKED: ATOM     32  C   UNL d   1      12.168   6.945   5.107 -0.24 +0.01    +0.052 C 
DOCKED: BRANCH  32  33
DOCKED: ATOM     33  C   UNL d   1      11.355   6.932   6.397 -0.15 +0.06    +0.115 C 
DOCKED: BRANCH  33  34
DOCKED: ATOM     34  C   UNL d   1      12.087   6.259   7.532 -0.15 +0.12    +0.139 C 
DOCKED: ATOM     35  O   UNL d   1      12.879   6.900   8.204 +0.03 -0.38    -0.650 OA
DOCKED: BRANCH  34  36
DOCKED: ATOM     36  O   UNL d   1      11.907   4.950   7.806 -0.16 -1.33    -0.776 OA
DOCKED: ATOM     37  H   UNL d   1      12.319   4.256   7.278 +0.03 +0.21    +0.167 HD
DOCKED: ENDBRANCH  34  36
DOCKED: ENDBRANCH  33  34
DOCKED: ENDBRANCH  32  33
DOCKED: ENDBRANCH   6  32
DOCKED: BRANCH  22  38
DOCKED: ATOM     38  C   UNL d   1      14.942   2.302   4.354 -0.48 +0.01    +0.052 C 
DOCKED: BRANCH  38  39
DOCKED: ATOM     39  C   UNL d   1      14.524   1.631   5.661 -0.31 +0.03    +0.115 C 
DOCKED: BRANCH  39  40
DOCKED: ATOM     40  C   UNL d   1      13.494   2.433   6.417 -0.31 +0.07    +0.139 C 
DOCKED: ATOM     41  O   UNL d   1      12.574   2.960   5.813 -0.47 -0.47    -0.650 OA
DOCKED: BRANCH  40  42
DOCKED: ATOM     42  O   UNL d   1      13.542   2.538   7.759 +0.02 -0.53    -0.776 OA
DOCKED: ATOM     43  H   UNL d   1      13.287   3.351   8.212 +0.03 +0.16    +0.167 HD
DOCKED: ENDBRANCH  40  42
DOCKED: ENDBRANCH  39  40
DOCKED: ENDBRANCH  38  39
DOCKED: ENDBRANCH  22  38
DOCKED: BRANCH  12  44
DOCKED: ATOM     44  C   UNL d   1      20.542  11.909   6.611 -0.01 +0.00    +0.004 C 
DOCKED: ATOM     45  C   UNL d   1      21.714  12.135   6.018 -0.01 +0.00    +0.012 C 
DOCKED: ENDBRANCH  12  44
DOCKED: BRANCH  17  46
DOCKED: ATOM     46  C   UNL d   1      22.580   4.302   4.372 -0.08 +0.00    +0.004 C 
DOCKED: ATOM     47  C   UNL d   1      22.532   3.588   3.240 -0.08 +0.01    +0.012 C 
DOCKED: ENDBRANCH  17  46
DOCKED: TORSDOF 10
DOCKED: TER
DOCKED: ENDMDL
________________________________________________________________________________


	BEGINNING GENETIC ALGORITHM DOCKING 90 of 100
Run: 90 Seed: 489465922 961329082 [ Run 90 of 100 GA/GALS ]
Beginning LAMARCKIAN GENETIC ALGORITHM (LGA), with a maximum of 25000000 energy evaluations.

Final-Value: -9.448


	FINAL GENETIC ALGORITHM DOCKED STATE
	_______________________________________________


Detailed state:  trans 8.925 -11.812 6.650 quatxyzw 0.106063 -0.993413 0.019650 0.038676 center 8.287 34.468 -0.670 ntor 10 169.3574 7.4821 -7.3531 36.0001 65.0815 78.5036 45.8728 -1.1924 -31.0717 172.0495
State:	  8.925 -11.812   6.650   0.106 -0.994  0.020 175.567    169.36    7.48   -7.35   36.00   65.08   78.50   45.87   -1.19  -31.07  172.05

DOCKED: MODEL       90
DOCKED: USER    Run = 90
DOCKED: USER    DPF = D:/Protein_go_brrr/autodock/final/mut_Y35F/heme_O2/dock.dpf
DOCKED: USER  
DOCKED: USER    Estimated Free Energy of Binding    =   -4.94 kcal/mol  [=(1)+(2)+(3)-(4)]
DOCKED: USER    Estimated Inhibition Constant, Ki   =  239.06 uM (micromolar)  [Temperature = 298.15 K]
DOCKED: USER    
DOCKED: USER    (1) Final Intermolecular Energy     =   -7.92 kcal/mol
DOCKED: USER        vdW + Hbond + desolv Energy     =   -6.96 kcal/mol
DOCKED: USER        Electrostatic Energy            =   -0.96 kcal/mol
DOCKED: USER    (2) Final Total Internal Energy     =   -1.52 kcal/mol
DOCKED: USER    (3) Torsional Free Energy           =   +2.98 kcal/mol
DOCKED: USER    (4) Unbound System's Energy  [=(2)] =   -1.52 kcal/mol
DOCKED: USER    
DOCKED: USER    
DOCKED: USER    NEWDPF move heme_O2_opt.pdbqt
DOCKED: USER    NEWDPF about 8.287000 34.468000 -0.670000
DOCKED: USER    NEWDPF tran0 8.924641 -11.811956 6.649955
DOCKED: USER    NEWDPF quaternion0 0.106063 -0.993413 0.019650 0.038676
DOCKED: USER    NEWDPF axisangle0 0.106142 -0.994157 0.019665 175.566927
DOCKED: USER    NEWDPF quat0 0.106142 -0.994157 0.019665 175.566927
DOCKED: USER    NEWDPF dihe0 169.36 7.48 -7.35 36.00 65.08 78.50 45.87 -1.19 -31.07 172.05 
DOCKED: USER  keepresnum = 1 
DOCKED: USER  
DOCKED: REMARK  10 active torsions:
DOCKED: REMARK  status: ('A' for Active; 'I' for Inactive)
DOCKED: REMARK    1  A    between atoms: C_6  and  C_10 
DOCKED: REMARK    2  A    between atoms: C_10  and  C_11 
DOCKED: REMARK    3  A    between atoms: C_11  and  C_12 
DOCKED: REMARK    4  A    between atoms: C_12  and  O_14 
DOCKED: REMARK    5  A    between atoms: C_17  and  C_20 
DOCKED: REMARK    6  A    between atoms: C_24  and  C_27 
DOCKED: REMARK    7  A    between atoms: C_31  and  C_34 
DOCKED: REMARK    8  A    between atoms: C_34  and  C_35 
DOCKED: REMARK    9  A    between atoms: C_35  and  C_36 
DOCKED: REMARK   10  A    between atoms: C_36  and  O_38 
DOCKED: USER                              x       y       z     vdW  Elec       q    Type
DOCKED: USER                           _______ _______ _______ _____ _____    ______ ____
DOCKED: ROOT
DOCKED: ATOM      1  C   UNL d   1      10.556 -10.802   7.554 -0.14 -0.00    +0.064 A 
DOCKED: ATOM      2  C   UNL d   1      10.282 -13.830   3.905 -0.15 -0.02    +0.064 A 
DOCKED: ATOM      3  C   UNL d   1       5.530 -14.245   4.487 -0.13 -0.02    +0.064 C 
DOCKED: ATOM      4  C   UNL d   1       5.730 -10.764   7.938 -0.11 -0.01    +0.064 A 
DOCKED: ATOM      5  C   UNL d   1      10.869 -11.590   6.513 -0.15 -0.02    +0.066 A 
DOCKED: ATOM      6  C   UNL d   1      12.169 -11.772   6.031 -0.10 +0.01    -0.021 A 
DOCKED: ATOM      7  C   UNL d   1      12.085 -12.614   4.947 -0.12 +0.01    -0.025 A 
DOCKED: ATOM      8  C   UNL d   1      10.743 -12.963   4.827 -0.15 -0.02    +0.066 A 
DOCKED: ATOM      9  C   UNL d   1      13.252 -13.019   4.074 -0.09 -0.02    +0.051 C 
DOCKED: ATOM     10  C   UNL d   1       8.890 -14.251   3.744 -0.18 -0.01    +0.066 A 
DOCKED: ATOM     11  C   UNL d   1       8.491 -15.276   2.879 -0.17 +0.00    -0.021 A 
DOCKED: ATOM     12  C   UNL d   1       7.126 -15.424   3.046 -0.23 -0.00    +0.000 A 
DOCKED: ATOM     13  C   UNL d   1       6.760 -14.450   4.016 -0.23 -0.02    +0.070 A 
DOCKED: ATOM     14  C   UNL d   1       9.379 -16.100   1.953 -0.13 -0.01    +0.052 C 
DOCKED: ATOM     15  C   UNL d   1       5.112 -13.247   5.442 -0.18 -0.02    +0.066 A 
DOCKED: ATOM     16  C   UNL d   1       3.784 -12.975   5.771 -0.31 +0.01    -0.021 A 
DOCKED: ATOM     17  C   UNL d   1       3.817 -11.985   6.753 -0.23 -0.00    +0.000 A 
DOCKED: ATOM     18  C   UNL d   1       5.180 -11.725   6.953 -0.13 -0.01    +0.070 A 
DOCKED: ATOM     19  C   UNL d   1       2.615 -13.637   5.087 -0.40 -0.02    +0.052 C 
DOCKED: ATOM     20  C   UNL d   1       7.029 -10.459   8.125 -0.09 -0.01    +0.066 A 
DOCKED: ATOM     21  C   UNL d   1       7.489  -9.558   9.081 -0.07 +0.00    -0.025 A 
DOCKED: ATOM     22  C   UNL d   1       8.863  -9.576   9.005 -0.08 +0.00    -0.021 A 
DOCKED: ATOM     23  C   UNL d   1       9.192 -10.479   7.989 -0.11 -0.01    +0.066 A 
DOCKED: ATOM     24  C   UNL d   1       6.659  -8.719  10.018 -0.07 -0.01    +0.051 C 
DOCKED: ATOM     25  N   UNL d   1       9.985 -12.280   5.751 -0.10 +0.08    -0.248 N 
DOCKED: ATOM     26  N   UNL d   1       7.838 -13.738   4.432 -0.15 +0.04    -0.248 N 
DOCKED: ATOM     27  N   UNL d   1       5.948 -12.446   6.096 -0.12 +0.04    -0.248 N 
DOCKED: ATOM     28  N   UNL d   1       8.073 -10.979   7.426 -0.07 +0.04    -0.248 N 
DOCKED: ATOM     29 FE   UNL d   1       7.953 -12.348   5.940 -0.04 -0.00    +0.000 Fe
DOCKED: ATOM     30  O   UNL d   1       8.440 -11.631   4.648 -0.57 -0.00    +0.000 OA
DOCKED: ATOM     31  O   UNL d   1       7.213 -11.051   5.447 -0.48 -0.00    +0.000 OA
DOCKED: ENDROOT
DOCKED: BRANCH   6  32
DOCKED: ATOM     32  C   UNL d   1      13.426 -11.074   6.482 -0.05 +0.01    +0.052 C 
DOCKED: BRANCH  32  33
DOCKED: ATOM     33  C   UNL d   1      13.644 -11.162   7.990 -0.07 +0.04    +0.115 C 
DOCKED: BRANCH  33  34
DOCKED: ATOM     34  C   UNL d   1      14.083  -9.847   8.585 +0.11 +0.11    +0.139 C 
DOCKED: ATOM     35  O   UNL d   1      15.268  -9.553   8.592 -0.01 -0.31    -0.650 OA
DOCKED: BRANCH  34  36
DOCKED: ATOM     36  O   UNL d   1      13.196  -8.994   9.138 -0.36 -0.75    -0.776 OA
DOCKED: ATOM     37  H   UNL d   1      13.476  -8.225   9.648 +0.01 +0.11    +0.167 HD
DOCKED: ENDBRANCH  34  36
DOCKED: ENDBRANCH  33  34
DOCKED: ENDBRANCH  32  33
DOCKED: ENDBRANCH   6  32
DOCKED: BRANCH  22  38
DOCKED: ATOM     38  C   UNL d   1       9.800  -8.724   9.822 -0.08 +0.01    +0.052 C 
DOCKED: BRANCH  38  39
DOCKED: ATOM     39  C   UNL d   1      10.040  -7.354   9.191 -0.07 +0.03    +0.115 C 
DOCKED: BRANCH  39  40
DOCKED: ATOM     40  C   UNL d   1      10.932  -6.479  10.035 -0.08 +0.04    +0.139 C 
DOCKED: ATOM     41  O   UNL d   1      10.652  -5.302  10.193 +0.03 -0.10    -0.650 OA
DOCKED: BRANCH  40  42
DOCKED: ATOM     42  O   UNL d   1      12.011  -6.986  10.663 +0.01 -0.21    -0.776 OA
DOCKED: ATOM     43  H   UNL d   1      12.329  -7.878  10.480 +0.01 +0.06    +0.167 HD
DOCKED: ENDBRANCH  40  42
DOCKED: ENDBRANCH  39  40
DOCKED: ENDBRANCH  38  39
DOCKED: ENDBRANCH  22  38
DOCKED: BRANCH  12  44
DOCKED: ATOM     44  C   UNL d   1       6.329 -16.455   2.275 -0.27 -0.00    +0.004 C 
DOCKED: ATOM     45  C   UNL d   1       5.073 -16.845   2.489 -0.31 -0.00    +0.012 C 
DOCKED: ENDBRANCH  12  44
DOCKED: BRANCH  17  46
DOCKED: ATOM     46  C   UNL d   1       2.704 -11.248   7.451 -0.31 -0.00    +0.004 C 
DOCKED: ATOM     47  C   UNL d   1       1.464 -11.679   7.716 -0.29 -0.00    +0.012 C 
DOCKED: ENDBRANCH  17  46
DOCKED: TORSDOF 10
DOCKED: TER
DOCKED: ENDMDL
________________________________________________________________________________


	BEGINNING GENETIC ALGORITHM DOCKING 91 of 100
Run: 91 Seed: 1126040787 915115779 [ Run 91 of 100 GA/GALS ]
Beginning LAMARCKIAN GENETIC ALGORITHM (LGA), with a maximum of 25000000 energy evaluations.

Final-Value: -10.034


	FINAL GENETIC ALGORITHM DOCKED STATE
	_______________________________________________


Detailed state:  trans 7.981 17.940 -8.507 quatxyzw -0.717856 0.270096 0.342302 0.542734 center 8.287 34.468 -0.670 ntor 10 -116.7949 180.0000 119.1509 25.8772 3.9494 134.1905 -62.5193 73.9483 168.3845 175.9456
State:	  7.981  17.940  -8.507  -0.855  0.322  0.408 114.260   -116.79  180.00  119.15   25.88    3.95  134.19  -62.52   73.95  168.38  175.95

DOCKED: MODEL       91
DOCKED: USER    Run = 91
DOCKED: USER    DPF = D:/Protein_go_brrr/autodock/final/mut_Y35F/heme_O2/dock.dpf
DOCKED: USER  
DOCKED: USER    Estimated Free Energy of Binding    =   -4.59 kcal/mol  [=(1)+(2)+(3)-(4)]
DOCKED: USER    Estimated Inhibition Constant, Ki   =  430.02 uM (micromolar)  [Temperature = 298.15 K]
DOCKED: USER    
DOCKED: USER    (1) Final Intermolecular Energy     =   -7.58 kcal/mol
DOCKED: USER        vdW + Hbond + desolv Energy     =   -6.68 kcal/mol
DOCKED: USER        Electrostatic Energy            =   -0.90 kcal/mol
DOCKED: USER    (2) Final Total Internal Energy     =   -2.46 kcal/mol
DOCKED: USER    (3) Torsional Free Energy           =   +2.98 kcal/mol
DOCKED: USER    (4) Unbound System's Energy  [=(2)] =   -2.46 kcal/mol
DOCKED: USER    
DOCKED: USER    
DOCKED: USER    NEWDPF move heme_O2_opt.pdbqt
DOCKED: USER    NEWDPF about 8.287000 34.468000 -0.670000
DOCKED: USER    NEWDPF tran0 7.981121 17.940467 -8.506847
DOCKED: USER    NEWDPF quaternion0 -0.717856 0.270096 0.342302 0.542734
DOCKED: USER    NEWDPF axisangle0 -0.854688 0.321579 0.407549 114.260139
DOCKED: USER    NEWDPF quat0 -0.854688 0.321579 0.407549 114.260139
DOCKED: USER    NEWDPF dihe0 -116.79 180.00 119.15 25.88 3.95 134.19 -62.52 73.95 168.38 175.95 
DOCKED: USER  keepresnum = 1 
DOCKED: USER  
DOCKED: REMARK  10 active torsions:
DOCKED: REMARK  status: ('A' for Active; 'I' for Inactive)
DOCKED: REMARK    1  A    between atoms: C_6  and  C_10 
DOCKED: REMARK    2  A    between atoms: C_10  and  C_11 
DOCKED: REMARK    3  A    between atoms: C_11  and  C_12 
DOCKED: REMARK    4  A    between atoms: C_12  and  O_14 
DOCKED: REMARK    5  A    between atoms: C_17  and  C_20 
DOCKED: REMARK    6  A    between atoms: C_24  and  C_27 
DOCKED: REMARK    7  A    between atoms: C_31  and  C_34 
DOCKED: REMARK    8  A    between atoms: C_34  and  C_35 
DOCKED: REMARK    9  A    between atoms: C_35  and  C_36 
DOCKED: REMARK   10  A    between atoms: C_36  and  O_38 
DOCKED: USER                              x       y       z     vdW  Elec       q    Type
DOCKED: USER                           _______ _______ _______ _____ _____    ______ ____
DOCKED: ROOT
DOCKED: ATOM      1  C   UNL d   1       7.440  19.676  -7.414 -0.07 +0.02    +0.064 A 
DOCKED: ATOM      2  C   UNL d   1       5.304  17.304 -10.931 -0.09 +0.01    +0.064 A 
DOCKED: ATOM      3  C   UNL d   1       8.940  14.169 -11.149 -0.25 -0.00    +0.064 C 
DOCKED: ATOM      4  C   UNL d   1      10.923  16.320  -7.211 -0.05 -0.01    +0.064 A 
DOCKED: ATOM      5  C   UNL d   1       6.562  19.286  -8.352 -0.07 +0.02    +0.066 A 
DOCKED: ATOM      6  C   UNL d   1       5.365  19.953  -8.630 -0.05 -0.00    -0.021 A 
DOCKED: ATOM      7  C   UNL d   1       4.725  19.242  -9.619 -0.04 -0.00    -0.025 A 
DOCKED: ATOM      8  C   UNL d   1       5.571  18.187  -9.950 -0.07 +0.01    +0.066 A 
DOCKED: ATOM      9  C   UNL d   1       3.356  19.571 -10.173 -0.02 +0.00    +0.051 C 
DOCKED: ATOM     10  C   UNL d   1       6.162  16.191 -11.340 -0.12 +0.01    +0.066 A 
DOCKED: ATOM     11  C   UNL d   1       5.916  15.404 -12.470 -0.18 -0.00    -0.021 A 
DOCKED: ATOM     12  C   UNL d   1       6.963  14.505 -12.560 -0.26 +0.00    +0.000 A 
DOCKED: ATOM     13  C   UNL d   1       7.802  14.794 -11.448 -0.22 +0.00    +0.070 A 
DOCKED: ATOM     14  C   UNL d   1       4.745  15.521 -13.438 -0.13 +0.00    +0.052 C 
DOCKED: ATOM     15  C   UNL d   1       9.799  14.408 -10.014 -0.26 -0.00    +0.066 A 
DOCKED: ATOM     16  C   UNL d   1      10.890  13.612  -9.667 -0.32 +0.00    -0.021 A 
DOCKED: ATOM     17  C   UNL d   1      11.471  14.205  -8.546 -0.32 -0.00    +0.000 A 
DOCKED: ATOM     18  C   UNL d   1      10.681  15.335  -8.292 -0.24 -0.00    +0.070 A 
DOCKED: ATOM     19  C   UNL d   1      11.244  12.339 -10.395 -0.33 -0.01    +0.052 C 
DOCKED: ATOM     20  C   UNL d   1      10.161  17.390  -6.912 -0.08 -0.00    +0.066 A 
DOCKED: ATOM     21  C   UNL d   1      10.450  18.293  -5.893 -0.14 +0.00    -0.025 A 
DOCKED: ATOM     22  C   UNL d   1       9.483  19.271  -5.953 -0.10 -0.00    -0.021 A 
DOCKED: ATOM     23  C   UNL d   1       8.626  18.918  -7.000 -0.10 +0.01    +0.066 A 
DOCKED: ATOM     24  C   UNL d   1      11.588  18.224  -4.908 -0.16 -0.03    +0.051 C 
DOCKED: ATOM     25  N   UNL d   1       6.671  18.177  -9.125 -0.05 -0.05    -0.248 N 
DOCKED: ATOM     26  N   UNL d   1       7.305  15.818 -10.708 -0.11 -0.03    -0.248 N 
DOCKED: ATOM     27  N   UNL d   1       9.628  15.401  -9.146 -0.16 +0.00    -0.248 N 
DOCKED: ATOM     28  N   UNL d   1       9.017  17.750  -7.551 -0.09 -0.03    -0.248 N 
DOCKED: ATOM     29 FE   UNL d   1       8.169  16.789  -9.118 -0.04 +0.00    +0.000 Fe
DOCKED: ATOM     30  O   UNL d   1       6.804  16.243  -8.606 -0.35 +0.00    +0.000 OA
DOCKED: ATOM     31  O   UNL d   1       8.137  15.808  -7.889 -0.45 +0.00    +0.000 OA
DOCKED: ENDROOT
DOCKED: BRANCH   6  32
DOCKED: ATOM     32  C   UNL d   1       4.777  21.135  -7.904 -0.03 +0.01    +0.052 C 
DOCKED: BRANCH  32  33
DOCKED: ATOM     33  C   UNL d   1       3.560  20.766  -7.061 -0.04 +0.03    +0.115 C 
DOCKED: BRANCH  33  34
DOCKED: ATOM     34  C   UNL d   1       3.801  20.963  -5.585 -0.05 +0.05    +0.139 C 
DOCKED: ATOM     35  O   UNL d   1       3.264  20.218  -4.781 -0.33 -0.41    -0.650 OA
DOCKED: BRANCH  34  36
DOCKED: ATOM     36  O   UNL d   1       4.579  21.966  -5.127 +0.02 -0.14    -0.776 OA
DOCKED: ATOM     37  H   UNL d   1       5.399  21.798  -4.648 +0.01 +0.03    +0.167 HD
DOCKED: ENDBRANCH  34  36
DOCKED: ENDBRANCH  33  34
DOCKED: ENDBRANCH  32  33
DOCKED: ENDBRANCH   6  32
DOCKED: BRANCH  22  38
DOCKED: ATOM     38  C   UNL d   1       9.358  20.442  -5.013 -0.05 -0.00    +0.052 C 
DOCKED: BRANCH  38  39
DOCKED: ATOM     39  C   UNL d   1       8.648  20.072  -3.713 -0.09 +0.01    +0.115 C 
DOCKED: BRANCH  39  40
DOCKED: ATOM     40  C   UNL d   1       7.251  20.636  -3.639 -0.08 +0.03    +0.139 C 
DOCKED: ATOM     41  O   UNL d   1       7.084  21.797  -3.302 +0.02 -0.05    -0.650 OA
DOCKED: BRANCH  40  42
DOCKED: ATOM     42  O   UNL d   1       6.182  19.895  -3.987 +0.08 -0.44    -0.776 OA
DOCKED: ATOM     43  H   UNL d   1       5.289  20.261  -3.979 +0.01 +0.09    +0.167 HD
DOCKED: ENDBRANCH  40  42
DOCKED: ENDBRANCH  39  40
DOCKED: ENDBRANCH  38  39
DOCKED: ENDBRANCH  22  38
DOCKED: BRANCH  12  44
DOCKED: ATOM     44  C   UNL d   1       7.051  13.483 -13.674 -0.28 +0.00    +0.004 C 
DOCKED: ATOM     45  C   UNL d   1       6.233  12.458 -13.911 -0.30 +0.00    +0.012 C 
DOCKED: ENDBRANCH  12  44
DOCKED: BRANCH  17  46
DOCKED: ATOM     46  C   UNL d   1      12.633  13.776  -7.692 -0.36 -0.00    +0.004 C 
DOCKED: ATOM     47  C   UNL d   1      13.609  12.910  -7.994 -0.32 -0.00    +0.012 C 
DOCKED: ENDBRANCH  17  46
DOCKED: TORSDOF 10
DOCKED: TER
DOCKED: ENDMDL
________________________________________________________________________________


	BEGINNING GENETIC ALGORITHM DOCKING 92 of 100
Run: 92 Seed: 1799393579 2072086753 [ Run 92 of 100 GA/GALS ]
Beginning LAMARCKIAN GENETIC ALGORITHM (LGA), with a maximum of 25000000 energy evaluations.

Final-Value: -8.913


	FINAL GENETIC ALGORITHM DOCKED STATE
	_______________________________________________


Detailed state:  trans -10.340 -18.205 -0.058 quatxyzw 0.241283 0.502992 -0.815834 0.152303 center 8.287 34.468 -0.670 ntor 10 -21.6112 180.0000 -110.8397 -121.9727 -118.3925 138.3739 -36.4464 174.8300 -153.5394 6.7866
State:	-10.340 -18.205  -0.058   0.244  0.509 -0.825 162.479    -21.61  180.00 -110.84 -121.97 -118.39  138.37  -36.45  174.83 -153.54    6.79

DOCKED: MODEL       92
DOCKED: USER    Run = 92
DOCKED: USER    DPF = D:/Protein_go_brrr/autodock/final/mut_Y35F/heme_O2/dock.dpf
DOCKED: USER  
DOCKED: USER    Estimated Free Energy of Binding    =   -5.28 kcal/mol  [=(1)+(2)+(3)-(4)]
DOCKED: USER    Estimated Inhibition Constant, Ki   =  134.01 uM (micromolar)  [Temperature = 298.15 K]
DOCKED: USER    
DOCKED: USER    (1) Final Intermolecular Energy     =   -8.27 kcal/mol
DOCKED: USER        vdW + Hbond + desolv Energy     =   -7.15 kcal/mol
DOCKED: USER        Electrostatic Energy            =   -1.11 kcal/mol
DOCKED: USER    (2) Final Total Internal Energy     =   -0.65 kcal/mol
DOCKED: USER    (3) Torsional Free Energy           =   +2.98 kcal/mol
DOCKED: USER    (4) Unbound System's Energy  [=(2)] =   -0.65 kcal/mol
DOCKED: USER    
DOCKED: USER    
DOCKED: USER    NEWDPF move heme_O2_opt.pdbqt
DOCKED: USER    NEWDPF about 8.287000 34.468000 -0.670000
DOCKED: USER    NEWDPF tran0 -10.340375 -18.205475 -0.058078
DOCKED: USER    NEWDPF quaternion0 0.241283 0.502992 -0.815834 0.152303
DOCKED: USER    NEWDPF axisangle0 0.244131 0.508929 -0.825464 162.479127
DOCKED: USER    NEWDPF quat0 0.244131 0.508929 -0.825464 162.479127
DOCKED: USER    NEWDPF dihe0 -21.61 180.00 -110.84 -121.97 -118.39 138.37 -36.45 174.83 -153.54 6.79 
DOCKED: USER  keepresnum = 1 
DOCKED: USER  
DOCKED: REMARK  10 active torsions:
DOCKED: REMARK  status: ('A' for Active; 'I' for Inactive)
DOCKED: REMARK    1  A    between atoms: C_6  and  C_10 
DOCKED: REMARK    2  A    between atoms: C_10  and  C_11 
DOCKED: REMARK    3  A    between atoms: C_11  and  C_12 
DOCKED: REMARK    4  A    between atoms: C_12  and  O_14 
DOCKED: REMARK    5  A    between atoms: C_17  and  C_20 
DOCKED: REMARK    6  A    between atoms: C_24  and  C_27 
DOCKED: REMARK    7  A    between atoms: C_31  and  C_34 
DOCKED: REMARK    8  A    between atoms: C_34  and  C_35 
DOCKED: REMARK    9  A    between atoms: C_35  and  C_36 
DOCKED: REMARK   10  A    between atoms: C_36  and  O_38 
DOCKED: USER                              x       y       z     vdW  Elec       q    Type
DOCKED: USER                           _______ _______ _______ _____ _____    ______ ____
DOCKED: ROOT
DOCKED: ATOM      1  C   UNL d   1      -8.341 -18.796  -0.449 -0.12 +0.00    +0.064 A 
DOCKED: ATOM      2  C   UNL d   1     -11.336 -19.768   3.107 -0.10 -0.00    +0.064 A 
DOCKED: ATOM      3  C   UNL d   1     -14.734 -17.010   1.121 -0.20 -0.00    +0.064 C 
DOCKED: ATOM      4  C   UNL d   1     -11.831 -16.385  -2.783 -0.18 +0.00    +0.064 A 
DOCKED: ATOM      5  C   UNL d   1      -8.879 -19.287   0.679 -0.09 +0.00    +0.066 A 
DOCKED: ATOM      6  C   UNL d   1      -8.201 -20.124   1.570 -0.06 -0.00    -0.021 A 
DOCKED: ATOM      7  C   UNL d   1      -9.081 -20.441   2.578 -0.08 -0.00    -0.025 A 
DOCKED: ATOM      8  C   UNL d   1     -10.258 -19.750   2.300 -0.11 -0.00    +0.066 A 
DOCKED: ATOM      9  C   UNL d   1      -8.785 -21.388   3.720 -0.05 +0.00    +0.051 C 
DOCKED: ATOM     10  C   UNL d   1     -12.589 -19.046   2.880 -0.06 +0.00    +0.066 A 
DOCKED: ATOM     11  C   UNL d   1     -13.615 -18.968   3.828 -0.00 -0.00    -0.021 A 
DOCKED: ATOM     12  C   UNL d   1     -14.596 -18.162   3.281 -0.24 -0.00    +0.000 A 
DOCKED: ATOM     13  C   UNL d   1     -14.108 -17.796   1.997 -0.23 -0.00    +0.070 A 
DOCKED: ATOM     14  C   UNL d   1     -13.646 -19.613   5.209 -0.05 +0.01    +0.052 C 
DOCKED: ATOM     15  C   UNL d   1     -14.290 -16.644  -0.202 -0.19 -0.00    +0.066 A 
DOCKED: ATOM     16  C   UNL d   1     -15.065 -15.953  -1.134 -0.18 +0.00    -0.021 A 
DOCKED: ATOM     17  C   UNL d   1     -14.258 -15.765  -2.255 -0.18 -0.00    +0.000 A 
DOCKED: ATOM     18  C   UNL d   1     -13.034 -16.361  -1.919 -0.15 -0.00    +0.070 A 
DOCKED: ATOM     19  C   UNL d   1     -16.508 -15.588  -0.893 -0.13 -0.01    +0.052 C 
DOCKED: ATOM     20  C   UNL d   1     -10.656 -16.985  -2.510 -0.16 -0.00    +0.066 A 
DOCKED: ATOM     21  C   UNL d   1      -9.551 -16.960  -3.356 -0.23 +0.00    -0.025 A 
DOCKED: ATOM     22  C   UNL d   1      -8.538 -17.618  -2.695 -0.20 +0.00    -0.021 A 
DOCKED: ATOM     23  C   UNL d   1      -9.071 -18.039  -1.473 -0.13 +0.00    +0.066 A 
DOCKED: ATOM     24  C   UNL d   1      -9.466 -16.341  -4.728 -0.14 -0.01    +0.051 C 
DOCKED: ATOM     25  N   UNL d   1     -10.154 -19.091   1.097 -0.07 +0.00    -0.248 N 
DOCKED: ATOM     26  N   UNL d   1     -12.888 -18.342   1.759 -0.12 +0.01    -0.248 N 
DOCKED: ATOM     27  N   UNL d   1     -13.096 -16.954  -0.700 -0.09 +0.01    -0.248 N 
DOCKED: ATOM     28  N   UNL d   1     -10.371 -17.691  -1.383 -0.07 +0.00    -0.248 N 
DOCKED: ATOM     29 FE   UNL d   1     -11.622 -18.013   0.175 -0.03 -0.00    +0.000 Fe
DOCKED: ATOM     30  O   UNL d   1     -11.894 -19.545   0.205 -0.06 -0.00    +0.000 OA
DOCKED: ATOM     31  O   UNL d   1     -12.248 -18.715  -1.086 -0.07 -0.00    +0.000 OA
DOCKED: ENDROOT
DOCKED: BRANCH   6  32
DOCKED: ATOM     32  C   UNL d   1      -6.824 -20.716   1.414 -0.10 +0.01    +0.052 C 
DOCKED: BRANCH  32  33
DOCKED: ATOM     33  C   UNL d   1      -6.758 -21.779   0.322 -0.05 +0.03    +0.115 C 
DOCKED: BRANCH  33  34
DOCKED: ATOM     34  C   UNL d   1      -5.475 -21.711  -0.469 +0.00 +0.10    +0.139 C 
DOCKED: ATOM     35  O   UNL d   1      -4.509 -22.366  -0.110 -0.39 -0.49    -0.650 OA
DOCKED: BRANCH  34  36
DOCKED: ATOM     36  O   UNL d   1      -5.360 -20.919  -1.555 -0.24 -0.86    -0.776 OA
DOCKED: ATOM     37  H   UNL d   1      -6.130 -20.608  -2.045 +0.02 +0.06    +0.167 HD
DOCKED: ENDBRANCH  34  36
DOCKED: ENDBRANCH  33  34
DOCKED: ENDBRANCH  32  33
DOCKED: ENDBRANCH   6  32
DOCKED: BRANCH  22  38
DOCKED: ATOM     38  C   UNL d   1      -7.159 -17.882  -3.241 -0.32 -0.01    +0.052 C 
DOCKED: BRANCH  38  39
DOCKED: ATOM     39  C   UNL d   1      -6.090 -17.035  -2.554 -0.45 -0.01    +0.115 C 
DOCKED: BRANCH  39  40
DOCKED: ATOM     40  C   UNL d   1      -6.679 -16.026  -1.600 -0.39 -0.01    +0.139 C 
DOCKED: ATOM     41  O   UNL d   1      -7.190 -15.007  -2.034 -0.03 +0.07    -0.650 OA
DOCKED: BRANCH  40  42
DOCKED: ATOM     42  O   UNL d   1      -6.698 -16.253  -0.272 +0.04 +0.02    -0.776 OA
DOCKED: ATOM     43  H   UNL d   1      -7.108 -15.631   0.341 -0.48 -0.04    +0.167 HD
DOCKED: ENDBRANCH  40  42
DOCKED: ENDBRANCH  39  40
DOCKED: ENDBRANCH  38  39
DOCKED: ENDBRANCH  22  38
DOCKED: BRANCH  12  44
DOCKED: ATOM     44  C   UNL d   1     -15.874 -17.835   4.025 -0.25 -0.00    +0.004 C 
DOCKED: ATOM     45  C   UNL d   1     -16.010 -17.139   5.153 -0.35 -0.00    +0.012 C 
DOCKED: ENDBRANCH  12  44
DOCKED: BRANCH  17  46
DOCKED: ATOM     46  C   UNL d   1     -14.555 -15.141  -3.593 -0.17 +0.00    +0.004 C 
DOCKED: ATOM     47  C   UNL d   1     -14.335 -15.651  -4.812 -0.23 +0.00    +0.012 C 
DOCKED: ENDBRANCH  17  46
DOCKED: TORSDOF 10
DOCKED: TER
DOCKED: ENDMDL
________________________________________________________________________________


	BEGINNING GENETIC ALGORITHM DOCKING 93 of 100
Run: 93 Seed: 239436669 1789740307 [ Run 93 of 100 GA/GALS ]
Beginning LAMARCKIAN GENETIC ALGORITHM (LGA), with a maximum of 25000000 energy evaluations.

Final-Value: -10.996


	FINAL GENETIC ALGORITHM DOCKED STATE
	_______________________________________________


Detailed state:  trans -4.779 -15.118 -15.050 quatxyzw -0.636849 -0.390088 0.157321 -0.646146 center 8.287 34.468 -0.670 ntor 10 68.8655 -154.3878 57.3506 117.7042 -43.7658 -167.8272 47.4569 60.9688 26.1848 137.3788
State:	 -4.779 -15.118 -15.050  -0.834 -0.511  0.206 -99.497     68.87 -154.39   57.35  117.70  -43.77 -167.83   47.46   60.97   26.18  137.38

DOCKED: MODEL       93
DOCKED: USER    Run = 93
DOCKED: USER    DPF = D:/Protein_go_brrr/autodock/final/mut_Y35F/heme_O2/dock.dpf
DOCKED: USER  
DOCKED: USER    Estimated Free Energy of Binding    =   -5.87 kcal/mol  [=(1)+(2)+(3)-(4)]
DOCKED: USER    Estimated Inhibition Constant, Ki   =   49.65 uM (micromolar)  [Temperature = 298.15 K]
DOCKED: USER    
DOCKED: USER    (1) Final Intermolecular Energy     =   -8.85 kcal/mol
DOCKED: USER        vdW + Hbond + desolv Energy     =   -6.46 kcal/mol
DOCKED: USER        Electrostatic Energy            =   -2.39 kcal/mol
DOCKED: USER    (2) Final Total Internal Energy     =   -2.14 kcal/mol
DOCKED: USER    (3) Torsional Free Energy           =   +2.98 kcal/mol
DOCKED: USER    (4) Unbound System's Energy  [=(2)] =   -2.14 kcal/mol
DOCKED: USER    
DOCKED: USER    
DOCKED: USER    NEWDPF move heme_O2_opt.pdbqt
DOCKED: USER    NEWDPF about 8.287000 34.468000 -0.670000
DOCKED: USER    NEWDPF tran0 -4.779098 -15.118355 -15.050115
DOCKED: USER    NEWDPF quaternion0 -0.636849 -0.390088 0.157321 -0.646146
DOCKED: USER    NEWDPF axisangle0 -0.834431 -0.511112 0.206130 -99.496706
DOCKED: USER    NEWDPF quat0 -0.834431 -0.511112 0.206130 -99.496706
DOCKED: USER    NEWDPF dihe0 68.87 -154.39 57.35 117.70 -43.77 -167.83 47.46 60.97 26.18 137.38 
DOCKED: USER  keepresnum = 1 
DOCKED: USER  
DOCKED: REMARK  10 active torsions:
DOCKED: REMARK  status: ('A' for Active; 'I' for Inactive)
DOCKED: REMARK    1  A    between atoms: C_6  and  C_10 
DOCKED: REMARK    2  A    between atoms: C_10  and  C_11 
DOCKED: REMARK    3  A    between atoms: C_11  and  C_12 
DOCKED: REMARK    4  A    between atoms: C_12  and  O_14 
DOCKED: REMARK    5  A    between atoms: C_17  and  C_20 
DOCKED: REMARK    6  A    between atoms: C_24  and  C_27 
DOCKED: REMARK    7  A    between atoms: C_31  and  C_34 
DOCKED: REMARK    8  A    between atoms: C_34  and  C_35 
DOCKED: REMARK    9  A    between atoms: C_35  and  C_36 
DOCKED: REMARK   10  A    between atoms: C_36  and  O_38 
DOCKED: USER                              x       y       z     vdW  Elec       q    Type
DOCKED: USER                           _______ _______ _______ _____ _____    ______ ____
DOCKED: ROOT
DOCKED: ATOM      1  C   UNL d   1      -5.247 -16.904 -16.095 -0.00 +0.03    +0.064 A 
DOCKED: ATOM      2  C   UNL d   1      -7.900 -13.865 -13.587 -0.16 +0.00    +0.064 A 
DOCKED: ATOM      3  C   UNL d   1      -4.042 -11.179 -12.587 -0.31 -0.01    +0.064 C 
DOCKED: ATOM      4  C   UNL d   1      -1.384 -14.035 -15.561 -0.05 +0.00    +0.064 A 
DOCKED: ATOM      5  C   UNL d   1      -6.284 -16.296 -15.496 -0.12 +0.02    +0.066 A 
DOCKED: ATOM      6  C   UNL d   1      -7.596 -16.777 -15.524 -0.12 -0.01    -0.021 A 
DOCKED: ATOM      7  C   UNL d   1      -8.372 -15.875 -14.835 -0.11 -0.00    -0.025 A 
DOCKED: ATOM      8  C   UNL d   1      -7.505 -14.893 -14.364 -0.13 +0.01    +0.066 A 
DOCKED: ATOM      9  C   UNL d   1      -9.875 -15.966 -14.681 -0.07 +0.01    +0.051 C 
DOCKED: ATOM     10  C   UNL d   1      -7.033 -12.818 -13.044 -0.21 -0.01    +0.066 A 
DOCKED: ATOM     11  C   UNL d   1      -7.465 -11.869 -12.111 -0.30 +0.00    -0.021 A 
DOCKED: ATOM     12  C   UNL d   1      -6.362 -11.096 -11.797 -0.31 -0.00    +0.000 A 
DOCKED: ATOM     13  C   UNL d   1      -5.300 -11.622 -12.583 -0.25 -0.01    +0.070 A 
DOCKED: ATOM     14  C   UNL d   1      -8.864 -11.723 -11.524 -0.23 -0.01    +0.052 C 
DOCKED: ATOM     15  C   UNL d   1      -2.947 -11.661 -13.394 -0.22 -0.01    +0.066 A 
DOCKED: ATOM     16  C   UNL d   1      -1.696 -11.050 -13.473 -0.26 +0.00    -0.021 A 
DOCKED: ATOM     17  C   UNL d   1      -0.921 -11.846 -14.317 -0.20 -0.00    +0.000 A 
DOCKED: ATOM     18  C   UNL d   1      -1.768 -12.898 -14.691 -0.11 +0.00    +0.070 A 
DOCKED: ATOM     19  C   UNL d   1      -1.373  -9.745 -12.790 -0.13 -0.00    +0.052 C 
DOCKED: ATOM     20  C   UNL d   1      -2.183 -15.037 -15.975 -0.06 +0.01    +0.066 A 
DOCKED: ATOM     21  C   UNL d   1      -1.760 -16.091 -16.780 -0.04 -0.00    -0.025 A 
DOCKED: ATOM     22  C   UNL d   1      -2.841 -16.933 -16.920 -0.08 -0.01    -0.021 A 
DOCKED: ATOM     23  C   UNL d   1      -3.893 -16.350 -16.207 -0.11 +0.02    +0.066 A 
DOCKED: ATOM     24  C   UNL d   1      -0.395 -16.283 -17.388 -0.01 +0.01    +0.051 C 
DOCKED: ATOM     25  N   UNL d   1      -6.229 -15.118 -14.827 -0.10 -0.04    -0.248 N 
DOCKED: ATOM     26  N   UNL d   1      -5.718 -12.666 -13.342 -0.12 +0.02    -0.248 N 
DOCKED: ATOM     27  N   UNL d   1      -3.015 -12.729 -14.182 -0.09 -0.00    -0.248 N 
DOCKED: ATOM     28  N   UNL d   1      -3.502 -15.175 -15.672 -0.07 -0.05    -0.248 N 
DOCKED: ATOM     29 FE   UNL d   1      -4.599 -13.928 -14.515 -0.03 +0.00    +0.000 Fe
DOCKED: ATOM     30  O   UNL d   1      -5.669 -13.295 -15.452 -0.07 +0.00    +0.000 OA
DOCKED: ATOM     31  O   UNL d   1      -4.139 -13.115 -15.781 -0.06 +0.00    +0.000 OA
DOCKED: ENDROOT
DOCKED: BRANCH   6  32
DOCKED: ATOM     32  C   UNL d   1      -8.128 -17.964 -16.284 -0.11 +0.02    +0.052 C 
DOCKED: BRANCH  32  33
DOCKED: ATOM     33  C   UNL d   1      -8.519 -19.124 -15.373 -0.10 +0.06    +0.115 C 
DOCKED: BRANCH  33  34
DOCKED: ATOM     34  C   UNL d   1      -8.019 -20.452 -15.885 -0.03 +0.14    +0.139 C 
DOCKED: ATOM     35  O   UNL d   1      -8.015 -21.421 -15.144 -0.45 -0.75    -0.650 OA
DOCKED: BRANCH  34  36
DOCKED: ATOM     36  O   UNL d   1      -7.547 -20.588 -17.141 -0.02 -0.85    -0.776 OA
DOCKED: ATOM     37  H   UNL d   1      -6.715 -20.187 -17.421 -0.00 +0.23    +0.167 HD
DOCKED: ENDBRANCH  34  36
DOCKED: ENDBRANCH  33  34
DOCKED: ENDBRANCH  32  33
DOCKED: ENDBRANCH   6  32
DOCKED: BRANCH  22  38
DOCKED: ATOM     38  C   UNL d   1      -2.872 -18.192 -17.748 -0.07 +0.03    +0.052 C 
DOCKED: BRANCH  38  39
DOCKED: ATOM     39  C   UNL d   1      -3.941 -18.146 -18.838 -0.05 +0.05    +0.115 C 
DOCKED: BRANCH  39  40
DOCKED: ATOM     40  C   UNL d   1      -4.957 -19.252 -18.696 -0.05 +0.10    +0.139 C 
DOCKED: ATOM     41  O   UNL d   1      -4.663 -20.270 -18.091 -0.34 -1.12    -0.650 OA
DOCKED: BRANCH  40  42
DOCKED: ATOM     42  O   UNL d   1      -6.205 -19.116 -19.182 -0.00 -0.39    -0.776 OA
DOCKED: ATOM     43  H   UNL d   1      -6.954 -19.578 -18.787 +0.01 +0.09    +0.167 HD
DOCKED: ENDBRANCH  40  42
DOCKED: ENDBRANCH  39  40
DOCKED: ENDBRANCH  38  39
DOCKED: ENDBRANCH  22  38
DOCKED: BRANCH  12  44
DOCKED: ATOM     44  C   UNL d   1      -6.436  -9.957 -10.802 -0.40 -0.00    +0.004 C 
DOCKED: ATOM     45  C   UNL d   1      -6.056  -8.692 -10.976 -0.34 -0.00    +0.012 C 
DOCKED: ENDBRANCH  12  44
DOCKED: BRANCH  17  46
DOCKED: ATOM     46  C   UNL d   1       0.485 -11.669 -14.826 -0.20 +0.00    +0.004 C 
DOCKED: ATOM     47  C   UNL d   1       1.573 -12.387 -14.520 -0.20 -0.00    +0.012 C 
DOCKED: ENDBRANCH  17  46
DOCKED: TORSDOF 10
DOCKED: TER
DOCKED: ENDMDL
________________________________________________________________________________


	BEGINNING GENETIC ALGORITHM DOCKING 94 of 100
Run: 94 Seed: 22037579 454473114 [ Run 94 of 100 GA/GALS ]
Beginning LAMARCKIAN GENETIC ALGORITHM (LGA), with a maximum of 25000000 energy evaluations.

Final-Value: -10.884


	FINAL GENETIC ALGORITHM DOCKED STATE
	_______________________________________________


Detailed state:  trans -13.247 8.776 14.611 quatxyzw 0.880325 0.308919 0.092668 0.347864 center 8.287 34.468 -0.670 ntor 10 8.8211 -122.6999 53.4950 -108.1705 59.8618 -180.0000 179.9498 96.2076 -163.5390 177.3817
State:	-13.247   8.776  14.611   0.939  0.329  0.099 139.287      8.82 -122.70   53.50 -108.17   59.86 -180.00  179.95   96.21 -163.54  177.38

DOCKED: MODEL       94
DOCKED: USER    Run = 94
DOCKED: USER    DPF = D:/Protein_go_brrr/autodock/final/mut_Y35F/heme_O2/dock.dpf
DOCKED: USER  
DOCKED: USER    Estimated Free Energy of Binding    =   -5.48 kcal/mol  [=(1)+(2)+(3)-(4)]
DOCKED: USER    Estimated Inhibition Constant, Ki   =   96.01 uM (micromolar)  [Temperature = 298.15 K]
DOCKED: USER    
DOCKED: USER    (1) Final Intermolecular Energy     =   -8.46 kcal/mol
DOCKED: USER        vdW + Hbond + desolv Energy     =   -4.48 kcal/mol
DOCKED: USER        Electrostatic Energy            =   -3.99 kcal/mol
DOCKED: USER    (2) Final Total Internal Energy     =   -2.42 kcal/mol
DOCKED: USER    (3) Torsional Free Energy           =   +2.98 kcal/mol
DOCKED: USER    (4) Unbound System's Energy  [=(2)] =   -2.42 kcal/mol
DOCKED: USER    
DOCKED: USER    
DOCKED: USER    NEWDPF move heme_O2_opt.pdbqt
DOCKED: USER    NEWDPF about 8.287000 34.468000 -0.670000
DOCKED: USER    NEWDPF tran0 -13.246918 8.775992 14.611385
DOCKED: USER    NEWDPF quaternion0 0.880325 0.308919 0.092668 0.347864
DOCKED: USER    NEWDPF axisangle0 0.938968 0.329498 0.098841 139.286597
DOCKED: USER    NEWDPF quat0 0.938968 0.329498 0.098841 139.286597
DOCKED: USER    NEWDPF dihe0 8.82 -122.70 53.50 -108.17 59.86 -180.00 179.95 96.21 -163.54 177.38 
DOCKED: USER  keepresnum = 1 
DOCKED: USER  
DOCKED: REMARK  10 active torsions:
DOCKED: REMARK  status: ('A' for Active; 'I' for Inactive)
DOCKED: REMARK    1  A    between atoms: C_6  and  C_10 
DOCKED: REMARK    2  A    between atoms: C_10  and  C_11 
DOCKED: REMARK    3  A    between atoms: C_11  and  C_12 
DOCKED: REMARK    4  A    between atoms: C_12  and  O_14 
DOCKED: REMARK    5  A    between atoms: C_17  and  C_20 
DOCKED: REMARK    6  A    between atoms: C_24  and  C_27 
DOCKED: REMARK    7  A    between atoms: C_31  and  C_34 
DOCKED: REMARK    8  A    between atoms: C_34  and  C_35 
DOCKED: REMARK    9  A    between atoms: C_35  and  C_36 
DOCKED: REMARK   10  A    between atoms: C_36  and  O_38 
DOCKED: USER                              x       y       z     vdW  Elec       q    Type
DOCKED: USER                           _______ _______ _______ _____ _____    ______ ____
DOCKED: ROOT
DOCKED: ATOM      1  C   UNL d   1     -14.320   7.002  14.163 -0.08 +0.05    +0.064 A 
DOCKED: ATOM      2  C   UNL d   1     -15.241  11.595  13.375 -0.02 +0.02    +0.064 A 
DOCKED: ATOM      3  C   UNL d   1     -11.146  12.881  15.537 -0.07 +0.01    +0.064 C 
DOCKED: ATOM      4  C   UNL d   1      -9.958   8.138  15.929 -0.17 +0.02    +0.064 A 
DOCKED: ATOM      5  C   UNL d   1     -14.904   8.146  13.770 -0.07 +0.05    +0.066 A 
DOCKED: ATOM      6  C   UNL d   1     -16.138   8.212  13.118 -0.04 -0.01    -0.021 A 
DOCKED: ATOM      7  C   UNL d   1     -16.385   9.538  12.851 -0.02 -0.01    -0.025 A 
DOCKED: ATOM      8  C   UNL d   1     -15.318  10.250  13.390 -0.04 +0.04    +0.066 A 
DOCKED: ATOM      9  C   UNL d   1     -17.583  10.058  12.086 -0.00 +0.02    +0.051 C 
DOCKED: ATOM     10  C   UNL d   1     -14.158  12.398  13.944 -0.03 +0.02    +0.066 A 
DOCKED: ATOM     11  C   UNL d   1     -14.206  13.793  14.046 -0.01 -0.00    -0.021 A 
DOCKED: ATOM     12  C   UNL d   1     -13.042  14.181  14.684 -0.02 +0.00    +0.000 A 
DOCKED: ATOM     13  C   UNL d   1     -12.328  12.976  14.929 -0.06 +0.01    +0.070 A 
DOCKED: ATOM     14  C   UNL d   1     -15.328  14.714  13.581 +0.00 +0.00    +0.052 C 
DOCKED: ATOM     15  C   UNL d   1     -10.375  11.685  15.773 -0.02 +0.01    +0.066 A 
DOCKED: ATOM     16  C   UNL d   1      -9.071  11.669  16.267 -0.04 -0.00    -0.021 A 
DOCKED: ATOM     17  C   UNL d   1      -8.711  10.327  16.386 -0.12 +0.00    +0.000 A 
DOCKED: ATOM     18  C   UNL d   1      -9.838   9.615  15.952 -0.13 +0.02    +0.070 A 
DOCKED: ATOM     19  C   UNL d   1      -8.274  12.923  16.525 -0.11 +0.01    +0.052 C 
DOCKED: ATOM     20  C   UNL d   1     -11.007   7.423  15.479 -0.15 +0.03    +0.066 A 
DOCKED: ATOM     21  C   UNL d   1     -11.071   6.032  15.499 -0.18 -0.01    -0.025 A 
DOCKED: ATOM     22  C   UNL d   1     -12.317   5.692  15.025 -0.15 -0.01    -0.021 A 
DOCKED: ATOM     23  C   UNL d   1     -12.965   6.892  14.715 -0.11 +0.04    +0.066 A 
DOCKED: ATOM     24  C   UNL d   1      -9.994   5.077  15.945 -0.23 +0.01    +0.051 C 
DOCKED: ATOM     25  N   UNL d   1     -14.374   9.388  13.899 -0.06 -0.21    -0.248 N 
DOCKED: ATOM     26  N   UNL d   1     -13.012  11.896  14.472 -0.06 -0.09    -0.248 N 
DOCKED: ATOM     27  N   UNL d   1     -10.810  10.455  15.513 -0.07 -0.08    -0.248 N 
DOCKED: ATOM     28  N   UNL d   1     -12.148   7.939  14.950 -0.10 -0.16    -0.248 N 
DOCKED: ATOM     29 FE   UNL d   1     -12.574   9.904  14.713 -0.02 +0.00    +0.000 Fe
DOCKED: ATOM     30  O   UNL d   1     -12.662  10.148  13.179 -0.74 +0.00    +0.000 OA
DOCKED: ATOM     31  O   UNL d   1     -11.334   9.577  13.804 -0.20 +0.00    +0.000 OA
DOCKED: ENDROOT
DOCKED: BRANCH   6  32
DOCKED: ATOM     32  C   UNL d   1     -16.991   7.065  12.639 -0.02 +0.02    +0.052 C 
DOCKED: BRANCH  32  33
DOCKED: ATOM     33  C   UNL d   1     -16.505   6.477  11.319 -0.06 +0.08    +0.115 C 
DOCKED: BRANCH  33  34
DOCKED: ATOM     34  C   UNL d   1     -15.311   7.214  10.765 -0.07 +0.17    +0.139 C 
DOCKED: ATOM     35  O   UNL d   1     -15.481   8.148   9.999 -0.03 -0.78    -0.650 OA
DOCKED: BRANCH  34  36
DOCKED: ATOM     36  O   UNL d   1     -14.051   6.846  11.076 +0.45 -1.66    -0.776 OA
DOCKED: ATOM     37  H   UNL d   1     -13.860   6.030  11.553 +0.03 +0.28    +0.167 HD
DOCKED: ENDBRANCH  34  36
DOCKED: ENDBRANCH  33  34
DOCKED: ENDBRANCH  32  33
DOCKED: ENDBRANCH   6  32
DOCKED: BRANCH  22  38
DOCKED: ATOM     38  C   UNL d   1     -12.827   4.288  14.823 -0.20 +0.02    +0.052 C 
DOCKED: BRANCH  38  39
DOCKED: ATOM     39  C   UNL d   1     -12.328   3.670  13.519 -0.36 +0.07    +0.115 C 
DOCKED: BRANCH  39  40
DOCKED: ATOM     40  C   UNL d   1     -13.190   4.039  12.338 -0.24 +0.17    +0.139 C 
DOCKED: ATOM     41  O   UNL d   1     -14.396   4.159  12.483 -0.07 -0.63    -0.650 OA
DOCKED: BRANCH  40  42
DOCKED: ATOM     42  O   UNL d   1     -12.647   4.291  11.132 -0.35 -1.89    -0.776 OA
DOCKED: ATOM     43  H   UNL d   1     -12.757   5.145  10.697 +0.06 +0.39    +0.167 HD
DOCKED: ENDBRANCH  40  42
DOCKED: ENDBRANCH  39  40
DOCKED: ENDBRANCH  38  39
DOCKED: ENDBRANCH  22  38
DOCKED: BRANCH  12  44
DOCKED: ATOM     44  C   UNL d   1     -12.736  15.634  14.983 -0.01 -0.00    +0.004 C 
DOCKED: ATOM     45  C   UNL d   1     -11.612  16.303  14.730 -0.02 -0.00    +0.012 C 
DOCKED: ENDBRANCH  12  44
DOCKED: BRANCH  17  46
DOCKED: ATOM     46  C   UNL d   1      -7.415   9.685  16.806 -0.16 +0.00    +0.004 C 
DOCKED: ATOM     47  C   UNL d   1      -6.588   8.930  16.071 -0.29 +0.00    +0.012 C 
DOCKED: ENDBRANCH  17  46
DOCKED: TORSDOF 10
DOCKED: TER
DOCKED: ENDMDL
________________________________________________________________________________


	BEGINNING GENETIC ALGORITHM DOCKING 95 of 100
Run: 95 Seed: 459946295 285501459 [ Run 95 of 100 GA/GALS ]
Beginning LAMARCKIAN GENETIC ALGORITHM (LGA), with a maximum of 25000000 energy evaluations.

Final-Value: -10.112


	FINAL GENETIC ALGORITHM DOCKED STATE
	_______________________________________________


Detailed state:  trans -5.128 -9.588 -12.994 quatxyzw 0.532835 0.124921 -0.144903 -0.824309 center 8.287 34.468 -0.670 ntor 10 -152.4985 -124.3150 105.6275 -160.1344 49.9395 130.2024 97.2566 -104.1158 11.0304 -27.0831
State:	 -5.128  -9.588 -12.994   0.941  0.221 -0.256 -68.963   -152.50 -124.32  105.63 -160.13   49.94  130.20   97.26 -104.12   11.03  -27.08

DOCKED: MODEL       95
DOCKED: USER    Run = 95
DOCKED: USER    DPF = D:/Protein_go_brrr/autodock/final/mut_Y35F/heme_O2/dock.dpf
DOCKED: USER  
DOCKED: USER    Estimated Free Energy of Binding    =   -4.60 kcal/mol  [=(1)+(2)+(3)-(4)]
DOCKED: USER    Estimated Inhibition Constant, Ki   =  426.51 uM (micromolar)  [Temperature = 298.15 K]
DOCKED: USER    
DOCKED: USER    (1) Final Intermolecular Energy     =   -7.58 kcal/mol
DOCKED: USER        vdW + Hbond + desolv Energy     =   -7.68 kcal/mol
DOCKED: USER        Electrostatic Energy            =   +0.10 kcal/mol
DOCKED: USER    (2) Final Total Internal Energy     =   -2.53 kcal/mol
DOCKED: USER    (3) Torsional Free Energy           =   +2.98 kcal/mol
DOCKED: USER    (4) Unbound System's Energy  [=(2)] =   -2.53 kcal/mol
DOCKED: USER    
DOCKED: USER    
DOCKED: USER    NEWDPF move heme_O2_opt.pdbqt
DOCKED: USER    NEWDPF about 8.287000 34.468000 -0.670000
DOCKED: USER    NEWDPF tran0 -5.128228 -9.588347 -12.994315
DOCKED: USER    NEWDPF quaternion0 0.532835 0.124921 -0.144903 -0.824309
DOCKED: USER    NEWDPF axisangle0 0.941171 0.220654 -0.255949 -68.963036
DOCKED: USER    NEWDPF quat0 0.941171 0.220654 -0.255949 -68.963036
DOCKED: USER    NEWDPF dihe0 -152.50 -124.32 105.63 -160.13 49.94 130.20 97.26 -104.12 11.03 -27.08 
DOCKED: USER  keepresnum = 1 
DOCKED: USER  
DOCKED: REMARK  10 active torsions:
DOCKED: REMARK  status: ('A' for Active; 'I' for Inactive)
DOCKED: REMARK    1  A    between atoms: C_6  and  C_10 
DOCKED: REMARK    2  A    between atoms: C_10  and  C_11 
DOCKED: REMARK    3  A    between atoms: C_11  and  C_12 
DOCKED: REMARK    4  A    between atoms: C_12  and  O_14 
DOCKED: REMARK    5  A    between atoms: C_17  and  C_20 
DOCKED: REMARK    6  A    between atoms: C_24  and  C_27 
DOCKED: REMARK    7  A    between atoms: C_31  and  C_34 
DOCKED: REMARK    8  A    between atoms: C_34  and  C_35 
DOCKED: REMARK    9  A    between atoms: C_35  and  C_36 
DOCKED: REMARK   10  A    between atoms: C_36  and  O_38 
DOCKED: USER                              x       y       z     vdW  Elec       q    Type
DOCKED: USER                           _______ _______ _______ _____ _____    ______ ____
DOCKED: ROOT
DOCKED: ATOM      1  C   UNL d   1      -6.679  -8.424 -12.134 -0.21 -0.01    +0.064 A 
DOCKED: ATOM      2  C   UNL d   1      -6.413 -13.003 -13.368 -0.19 -0.00    +0.064 A 
DOCKED: ATOM      3  C   UNL d   1      -1.919 -12.408 -14.963 -0.10 +0.00    +0.064 C 
DOCKED: ATOM      4  C   UNL d   1      -2.010  -7.808 -13.260 -0.20 +0.00    +0.064 A 
DOCKED: ATOM      5  C   UNL d   1      -6.972  -9.718 -12.338 -0.20 -0.01    +0.066 A 
DOCKED: ATOM      6  C   UNL d   1      -8.206 -10.299 -12.030 -0.30 +0.00    -0.021 A 
DOCKED: ATOM      7  C   UNL d   1      -8.116 -11.634 -12.346 -0.28 +0.00    -0.025 A 
DOCKED: ATOM      8  C   UNL d   1      -6.846 -11.822 -12.884 -0.19 -0.01    +0.066 A 
DOCKED: ATOM      9  C   UNL d   1      -9.204 -12.657 -12.103 -0.29 -0.00    +0.051 C 
DOCKED: ATOM     10  C   UNL d   1      -5.101 -13.256 -13.965 -0.17 +0.00    +0.066 A 
DOCKED: ATOM     11  C   UNL d   1      -4.763 -14.456 -14.599 -0.19 -0.00    -0.021 A 
DOCKED: ATOM     12  C   UNL d   1      -3.477 -14.298 -15.081 -0.13 +0.00    +0.000 A 
DOCKED: ATOM     13  C   UNL d   1      -3.090 -12.985 -14.695 -0.11 +0.00    +0.070 A 
DOCKED: ATOM     14  C   UNL d   1      -5.639 -15.693 -14.762 -0.14 +0.01    +0.052 C 
DOCKED: ATOM     15  C   UNL d   1      -1.476 -11.095 -14.559 -0.13 -0.00    +0.066 A 
DOCKED: ATOM     16  C   UNL d   1      -0.179 -10.611 -14.729 -0.17 -0.00    -0.021 A 
DOCKED: ATOM     17  C   UNL d   1      -0.181  -9.301 -14.250 -0.22 +0.00    +0.000 A 
DOCKED: ATOM     18  C   UNL d   1      -1.497  -9.081 -13.819 -0.19 -0.00    +0.070 A 
DOCKED: ATOM     19  C   UNL d   1       0.947 -11.451 -15.277 -0.14 +0.00    +0.052 C 
DOCKED: ATOM     20  C   UNL d   1      -3.254  -7.576 -12.798 -0.13 +0.00    +0.066 A 
DOCKED: ATOM     21  C   UNL d   1      -3.685  -6.350 -12.298 -0.22 -0.00    -0.025 A 
DOCKED: ATOM     22  C   UNL d   1      -5.020  -6.499 -11.997 -0.21 +0.00    -0.021 A 
DOCKED: ATOM     23  C   UNL d   1      -5.352  -7.821 -12.309 -0.16 -0.00    +0.066 A 
DOCKED: ATOM     24  C   UNL d   1      -2.863  -5.101 -12.113 -0.10 +0.00    +0.051 C 
DOCKED: ATOM     25  N   UNL d   1      -6.119 -10.656 -12.818 -0.09 +0.03    -0.248 N 
DOCKED: ATOM     26  N   UNL d   1      -4.082 -12.360 -14.011 -0.09 +0.01    -0.248 N 
DOCKED: ATOM     27  N   UNL d   1      -2.249 -10.204 -13.945 -0.10 +0.01    -0.248 N 
DOCKED: ATOM     28  N   UNL d   1      -4.264  -8.485 -12.753 -0.06 +0.01    -0.248 N 
DOCKED: ATOM     29 FE   UNL d   1      -4.171 -10.408 -13.378 -0.04 -0.00    +0.000 Fe
DOCKED: ATOM     30  O   UNL d   1      -4.352 -11.288 -12.107 -0.43 -0.00    +0.000 OA
DOCKED: ATOM     31  O   UNL d   1      -3.167 -10.253 -12.178 -0.26 -0.00    +0.000 OA
DOCKED: ENDROOT
DOCKED: BRANCH   6  32
DOCKED: ATOM     32  C   UNL d   1      -9.381  -9.658 -11.337 -0.37 -0.01    +0.052 C 
DOCKED: BRANCH  32  33
DOCKED: ATOM     33  C   UNL d   1     -10.411  -9.098 -12.313 -0.18 -0.01    +0.115 C 
DOCKED: BRANCH  33  34
DOCKED: ATOM     34  C   UNL d   1     -10.066  -7.705 -12.777 -0.15 -0.02    +0.139 C 
DOCKED: ATOM     35  O   UNL d   1     -10.634  -6.745 -12.280 -0.03 +0.09    -0.650 OA
DOCKED: BRANCH  34  36
DOCKED: ATOM     36  O   UNL d   1      -9.160  -7.493 -13.754 +0.02 +0.06    -0.776 OA
DOCKED: ATOM     37  H   UNL d   1      -8.643  -6.681 -13.804 +0.02 -0.01    +0.167 HD
DOCKED: ENDBRANCH  34  36
DOCKED: ENDBRANCH  33  34
DOCKED: ENDBRANCH  32  33
DOCKED: ENDBRANCH   6  32
DOCKED: BRANCH  22  38
DOCKED: ATOM     38  C   UNL d   1      -5.906  -5.445 -11.385 -0.24 -0.00    +0.052 C 
DOCKED: BRANCH  38  39
DOCKED: ATOM     39  C   UNL d   1      -6.296  -4.360 -12.385 -0.13 +0.01    +0.115 C 
DOCKED: BRANCH  39  40
DOCKED: ATOM     40  C   UNL d   1      -7.336  -4.831 -13.371 -0.08 +0.00    +0.139 C 
DOCKED: ATOM     41  O   UNL d   1      -6.990  -5.425 -14.379 +0.01 +0.00    -0.650 OA
DOCKED: BRANCH  40  42
DOCKED: ATOM     42  O   UNL d   1      -8.650  -4.654 -13.134 -0.32 -0.05    -0.776 OA
DOCKED: ATOM     43  H   UNL d   1      -9.261  -5.399 -13.095 +0.00 +0.00    +0.167 HD
DOCKED: ENDBRANCH  40  42
DOCKED: ENDBRANCH  39  40
DOCKED: ENDBRANCH  38  39
DOCKED: ENDBRANCH  22  38
DOCKED: BRANCH  12  44
DOCKED: ATOM     44  C   UNL d   1      -2.763 -15.395 -15.843 -0.11 +0.00    +0.004 C 
DOCKED: ATOM     45  C   UNL d   1      -2.164 -16.478 -15.349 -0.15 +0.00    +0.012 C 
DOCKED: ENDBRANCH  12  44
DOCKED: BRANCH  17  46
DOCKED: ATOM     46  C   UNL d   1       0.932  -8.296 -14.116 -0.23 +0.00    +0.004 C 
DOCKED: ATOM     47  C   UNL d   1       0.930  -7.144 -13.433 -0.32 +0.00    +0.012 C 
DOCKED: ENDBRANCH  17  46
DOCKED: TORSDOF 10
DOCKED: TER
DOCKED: ENDMDL
________________________________________________________________________________


	BEGINNING GENETIC ALGORITHM DOCKING 96 of 100
Run: 96 Seed: 826249373 1799691100 [ Run 96 of 100 GA/GALS ]
Beginning LAMARCKIAN GENETIC ALGORITHM (LGA), with a maximum of 25000000 energy evaluations.

Final-Value: -10.375


	FINAL GENETIC ALGORITHM DOCKED STATE
	_______________________________________________


Detailed state:  trans 9.597 1.715 12.532 quatxyzw -0.306636 0.107545 0.832200 0.449279 center 8.287 34.468 -0.670 ntor 10 144.6730 -44.4575 -101.3172 85.2276 -150.4599 115.9016 130.2550 -149.6942 12.0564 -14.1758
State:	  9.597   1.715  12.532  -0.343  0.120  0.932 126.605    144.67  -44.46 -101.32   85.23 -150.46  115.90  130.25 -149.69   12.06  -14.18

DOCKED: MODEL       96
DOCKED: USER    Run = 96
DOCKED: USER    DPF = D:/Protein_go_brrr/autodock/final/mut_Y35F/heme_O2/dock.dpf
DOCKED: USER  
DOCKED: USER    Estimated Free Energy of Binding    =   -5.74 kcal/mol  [=(1)+(2)+(3)-(4)]
DOCKED: USER    Estimated Inhibition Constant, Ki   =   61.98 uM (micromolar)  [Temperature = 298.15 K]
DOCKED: USER    
DOCKED: USER    (1) Final Intermolecular Energy     =   -8.72 kcal/mol
DOCKED: USER        vdW + Hbond + desolv Energy     =   -5.45 kcal/mol
DOCKED: USER        Electrostatic Energy            =   -3.27 kcal/mol
DOCKED: USER    (2) Final Total Internal Energy     =   -1.65 kcal/mol
DOCKED: USER    (3) Torsional Free Energy           =   +2.98 kcal/mol
DOCKED: USER    (4) Unbound System's Energy  [=(2)] =   -1.65 kcal/mol
DOCKED: USER    
DOCKED: USER    
DOCKED: USER    NEWDPF move heme_O2_opt.pdbqt
DOCKED: USER    NEWDPF about 8.287000 34.468000 -0.670000
DOCKED: USER    NEWDPF tran0 9.596705 1.714817 12.531960
DOCKED: USER    NEWDPF quaternion0 -0.306636 0.107545 0.832200 0.449279
DOCKED: USER    NEWDPF axisangle0 -0.343227 0.120378 0.931506 126.605157
DOCKED: USER    NEWDPF quat0 -0.343227 0.120378 0.931506 126.605157
DOCKED: USER    NEWDPF dihe0 144.67 -44.46 -101.32 85.23 -150.46 115.90 130.25 -149.69 12.06 -14.18 
DOCKED: USER  keepresnum = 1 
DOCKED: USER  
DOCKED: REMARK  10 active torsions:
DOCKED: REMARK  status: ('A' for Active; 'I' for Inactive)
DOCKED: REMARK    1  A    between atoms: C_6  and  C_10 
DOCKED: REMARK    2  A    between atoms: C_10  and  C_11 
DOCKED: REMARK    3  A    between atoms: C_11  and  C_12 
DOCKED: REMARK    4  A    between atoms: C_12  and  O_14 
DOCKED: REMARK    5  A    between atoms: C_17  and  C_20 
DOCKED: REMARK    6  A    between atoms: C_24  and  C_27 
DOCKED: REMARK    7  A    between atoms: C_31  and  C_34 
DOCKED: REMARK    8  A    between atoms: C_34  and  C_35 
DOCKED: REMARK    9  A    between atoms: C_35  and  C_36 
DOCKED: REMARK   10  A    between atoms: C_36  and  O_38 
DOCKED: USER                              x       y       z     vdW  Elec       q    Type
DOCKED: USER                           _______ _______ _______ _____ _____    ______ ____
DOCKED: ROOT
DOCKED: ATOM      1  C   UNL d   1      11.256   2.969  12.948 -0.07 +0.05    +0.064 A 
DOCKED: ATOM      2  C   UNL d   1       6.667   3.218  14.147 -0.07 +0.01    +0.064 A 
DOCKED: ATOM      3  C   UNL d   1       5.718  -0.818  11.716 -0.24 -0.02    +0.064 C 
DOCKED: ATOM      4  C   UNL d   1      10.522  -1.344  10.874 -0.13 +0.02    +0.064 A 
DOCKED: ATOM      5  C   UNL d   1      10.086   3.365  13.474 -0.06 +0.04    +0.066 A 
DOCKED: ATOM      6  C   UNL d   1       9.924   4.523  14.240 -0.04 -0.01    -0.021 A 
DOCKED: ATOM      7  C   UNL d   1       8.604   4.573  14.624 -0.04 -0.01    -0.025 A 
DOCKED: ATOM      8  C   UNL d   1       7.986   3.470  14.041 -0.06 +0.02    +0.066 A 
DOCKED: ATOM      9  C   UNL d   1       8.006   5.626  15.531 -0.05 +0.01    +0.051 C 
DOCKED: ATOM     10  C   UNL d   1       5.958   2.090  13.539 -0.08 +0.00    +0.066 A 
DOCKED: ATOM     11  C   UNL d   1       4.565   1.965  13.543 -0.14 +0.00    -0.021 A 
DOCKED: ATOM     12  C   UNL d   1       4.270   0.817  12.831 -0.20 -0.00    +0.000 A 
DOCKED: ATOM     13  C   UNL d   1       5.530   0.288  12.435 -0.14 -0.01    +0.070 A 
DOCKED: ATOM     14  C   UNL d   1       3.555   2.916  14.176 -0.23 -0.00    +0.052 C 
DOCKED: ATOM     15  C   UNL d   1       6.977  -1.405  11.324 -0.19 -0.01    +0.066 A 
DOCKED: ATOM     16  C   UNL d   1       7.111  -2.651  10.713 -0.25 +0.00    -0.021 A 
DOCKED: ATOM     17  C   UNL d   1       8.473  -2.823  10.464 -0.21 +0.00    +0.000 A 
DOCKED: ATOM     18  C   UNL d   1       9.075  -1.653  10.947 -0.15 +0.01    +0.070 A 
DOCKED: ATOM     19  C   UNL d   1       5.948  -3.580  10.473 +0.07 -0.02    +0.052 C 
DOCKED: ATOM     20  C   UNL d   1      11.138  -0.251  11.366 -0.10 +0.03    +0.066 A 
DOCKED: ATOM     21  C   UNL d   1      12.504  -0.007  11.252 -0.09 -0.01    -0.025 A 
DOCKED: ATOM     22  C   UNL d   1      12.726   1.230  11.813 -0.08 -0.01    -0.021 A 
DOCKED: ATOM     23  C   UNL d   1      11.486   1.689  12.268 -0.07 +0.04    +0.066 A 
DOCKED: ATOM     24  C   UNL d   1      13.544  -0.910  10.641 -0.06 +0.01    +0.051 C 
DOCKED: ATOM     25  N   UNL d   1       8.913   2.691  13.388 -0.05 -0.12    -0.248 N 
DOCKED: ATOM     26  N   UNL d   1       6.552   1.067  12.874 -0.04 -0.01    -0.248 N 
DOCKED: ATOM     27  N   UNL d   1       8.161  -0.837  11.533 -0.09 -0.03    -0.248 N 
DOCKED: ATOM     28  N   UNL d   1      10.531   0.765  12.034 -0.08 -0.14    -0.248 N 
DOCKED: ATOM     29 FE   UNL d   1       8.556   0.912  12.450 -0.02 +0.00    +0.000 Fe
DOCKED: ATOM     30  O   UNL d   1       8.431   0.842  14.000 -0.04 +0.00    +0.000 OA
DOCKED: ATOM     31  O   UNL d   1       9.107  -0.346  13.216 -0.05 +0.00    +0.000 OA
DOCKED: ENDROOT
DOCKED: BRANCH   6  32
DOCKED: ATOM     32  C   UNL d   1      10.992   5.475  14.711 -0.01 +0.02    +0.052 C 
DOCKED: BRANCH  32  33
DOCKED: ATOM     33  C   UNL d   1      11.153   6.684  13.796 -0.02 +0.04    +0.115 C 
DOCKED: BRANCH  33  34
DOCKED: ATOM     34  C   UNL d   1      11.338   6.292  12.351 -0.06 +0.10    +0.139 C 
DOCKED: ATOM     35  O   UNL d   1      10.480   5.628  11.791 -0.34 -0.97    -0.650 OA
DOCKED: BRANCH  34  36
DOCKED: ATOM     36  O   UNL d   1      12.449   6.635  11.666 +0.02 -0.48    -0.776 OA
DOCKED: ATOM     37  H   UNL d   1      12.836   6.057  10.998 +0.01 +0.13    +0.167 HD
DOCKED: ENDBRANCH  34  36
DOCKED: ENDBRANCH  33  34
DOCKED: ENDBRANCH  32  33
DOCKED: ENDBRANCH   6  32
DOCKED: BRANCH  22  38
DOCKED: ATOM     38  C   UNL d   1      14.069   1.899  11.959 -0.03 +0.02    +0.052 C 
DOCKED: BRANCH  38  39
DOCKED: ATOM     39  C   UNL d   1      14.446   2.721  10.729 -0.04 +0.06    +0.115 C 
DOCKED: BRANCH  39  40
DOCKED: ATOM     40  C   UNL d   1      13.239   3.261  10.004 +0.03 +0.17    +0.139 C 
DOCKED: ATOM     41  O   UNL d   1      12.825   2.691   9.007 -0.29 -0.93    -0.650 OA
DOCKED: BRANCH  40  42
DOCKED: ATOM     42  O   UNL d   1      12.574   4.338  10.466 -0.23 -1.50    -0.776 OA
DOCKED: ATOM     43  H   UNL d   1      12.392   4.454  11.406 +0.00 +0.23    +0.167 HD
DOCKED: ENDBRANCH  40  42
DOCKED: ENDBRANCH  39  40
DOCKED: ENDBRANCH  38  39
DOCKED: ENDBRANCH  22  38
DOCKED: BRANCH  12  44
DOCKED: ATOM     44  C   UNL d   1       2.847   0.351  12.611 -0.34 -0.00    +0.004 C 
DOCKED: ATOM     45  C   UNL d   1       1.936   0.864  11.784 -0.46 -0.00    +0.012 C 
DOCKED: ENDBRANCH  12  44
DOCKED: BRANCH  17  46
DOCKED: ATOM     46  C   UNL d   1       9.232  -3.986   9.882 -0.23 +0.00    +0.004 C 
DOCKED: ATOM     47  C   UNL d   1       9.349  -4.337   8.595 -0.40 +0.00    +0.012 C 
DOCKED: ENDBRANCH  17  46
DOCKED: TORSDOF 10
DOCKED: TER
DOCKED: ENDMDL
________________________________________________________________________________


	BEGINNING GENETIC ALGORITHM DOCKING 97 of 100
Run: 97 Seed: 1992891035 482404972 [ Run 97 of 100 GA/GALS ]
Beginning LAMARCKIAN GENETIC ALGORITHM (LGA), with a maximum of 25000000 energy evaluations.

Final-Value: -10.590


	FINAL GENETIC ALGORITHM DOCKED STATE
	_______________________________________________


Detailed state:  trans 14.139 10.841 4.559 quatxyzw -0.011166 -0.452263 -0.792069 0.409830 center 8.287 34.468 -0.670 ntor 10 85.7789 -84.4999 -45.1254 146.9531 -154.0958 -171.4265 -125.4253 21.4466 -13.9438 -179.4251
State:	 14.139  10.841   4.559  -0.012 -0.496 -0.868 131.612     85.78  -84.50  -45.13  146.95 -154.10 -171.43 -125.43   21.45  -13.94 -179.43

DOCKED: MODEL       97
DOCKED: USER    Run = 97
DOCKED: USER    DPF = D:/Protein_go_brrr/autodock/final/mut_Y35F/heme_O2/dock.dpf
DOCKED: USER  
DOCKED: USER    Estimated Free Energy of Binding    =   -6.95 kcal/mol  [=(1)+(2)+(3)-(4)]
DOCKED: USER    Estimated Inhibition Constant, Ki   =    8.11 uM (micromolar)  [Temperature = 298.15 K]
DOCKED: USER    
DOCKED: USER    (1) Final Intermolecular Energy     =   -9.93 kcal/mol
DOCKED: USER        vdW + Hbond + desolv Energy     =   -7.49 kcal/mol
DOCKED: USER        Electrostatic Energy            =   -2.44 kcal/mol
DOCKED: USER    (2) Final Total Internal Energy     =   -0.66 kcal/mol
DOCKED: USER    (3) Torsional Free Energy           =   +2.98 kcal/mol
DOCKED: USER    (4) Unbound System's Energy  [=(2)] =   -0.66 kcal/mol
DOCKED: USER    
DOCKED: USER    
DOCKED: USER    NEWDPF move heme_O2_opt.pdbqt
DOCKED: USER    NEWDPF about 8.287000 34.468000 -0.670000
DOCKED: USER    NEWDPF tran0 14.138858 10.840817 4.559170
DOCKED: USER    NEWDPF quaternion0 -0.011166 -0.452263 -0.792069 0.409830
DOCKED: USER    NEWDPF axisangle0 -0.012241 -0.495814 -0.868342 131.611662
DOCKED: USER    NEWDPF quat0 -0.012241 -0.495814 -0.868342 131.611662
DOCKED: USER    NEWDPF dihe0 85.78 -84.50 -45.13 146.95 -154.10 -171.43 -125.43 21.45 -13.94 -179.43 
DOCKED: USER  keepresnum = 1 
DOCKED: USER  
DOCKED: REMARK  10 active torsions:
DOCKED: REMARK  status: ('A' for Active; 'I' for Inactive)
DOCKED: REMARK    1  A    between atoms: C_6  and  C_10 
DOCKED: REMARK    2  A    between atoms: C_10  and  C_11 
DOCKED: REMARK    3  A    between atoms: C_11  and  C_12 
DOCKED: REMARK    4  A    between atoms: C_12  and  O_14 
DOCKED: REMARK    5  A    between atoms: C_17  and  C_20 
DOCKED: REMARK    6  A    between atoms: C_24  and  C_27 
DOCKED: REMARK    7  A    between atoms: C_31  and  C_34 
DOCKED: REMARK    8  A    between atoms: C_34  and  C_35 
DOCKED: REMARK    9  A    between atoms: C_35  and  C_36 
DOCKED: REMARK   10  A    between atoms: C_36  and  O_38 
DOCKED: USER                              x       y       z     vdW  Elec       q    Type
DOCKED: USER                           _______ _______ _______ _____ _____    ______ ____
DOCKED: ROOT
DOCKED: ATOM      1  C   UNL d   1      14.685   8.889   5.184 -0.13 +0.02    +0.064 A 
DOCKED: ATOM      2  C   UNL d   1      17.087  12.981   4.980 -0.06 +0.01    +0.064 A 
DOCKED: ATOM      3  C   UNL d   1      13.254  15.248   3.173 -0.10 -0.01    +0.064 C 
DOCKED: ATOM      4  C   UNL d   1      10.628  11.156   3.826 -0.26 -0.01    +0.064 A 
DOCKED: ATOM      5  C   UNL d   1      15.650   9.817   5.277 +0.13 +0.03    +0.066 A 
DOCKED: ATOM      6  C   UNL d   1      16.944   9.557   5.738 -0.07 -0.01    -0.021 A 
DOCKED: ATOM      7  C   UNL d   1      17.628  10.750   5.721 -0.06 -0.01    -0.025 A 
DOCKED: ATOM      8  C   UNL d   1      16.748  11.697   5.203 -0.05 +0.02    +0.066 A 
DOCKED: ATOM      9  C   UNL d   1      19.046  10.942   6.212 -0.04 +0.01    +0.051 C 
DOCKED: ATOM     10  C   UNL d   1      16.215  14.013   4.418 -0.06 +0.00    +0.066 A 
DOCKED: ATOM     11  C   UNL d   1      16.666  15.287   4.054 -0.04 +0.00    -0.021 A 
DOCKED: ATOM     12  C   UNL d   1      15.579  15.950   3.515 -0.04 -0.00    +0.000 A 
DOCKED: ATOM     13  C   UNL d   1      14.500  15.026   3.593 -0.05 -0.01    +0.070 A 
DOCKED: ATOM     14  C   UNL d   1      18.080  15.839   4.190 -0.02 -0.00    +0.052 C 
DOCKED: ATOM     15  C   UNL d   1      12.126  14.353   3.267 -0.15 -0.01    +0.066 A 
DOCKED: ATOM     16  C   UNL d   1      10.812  14.703   2.960 -0.27 +0.00    -0.021 A 
DOCKED: ATOM     17  C   UNL d   1      10.045  13.552   3.139 -0.41 -0.00    +0.000 A 
DOCKED: ATOM     18  C   UNL d   1      10.961  12.573   3.546 -0.20 -0.01    +0.070 A 
DOCKED: ATOM     19  C   UNL d   1      10.401  16.104   2.580 -0.24 -0.01    +0.052 C 
DOCKED: ATOM     20  C   UNL d   1      11.474  10.201   4.259 -0.23 -0.00    +0.066 A 
DOCKED: ATOM     21  C   UNL d   1      11.106   8.878   4.488 -0.27 -0.00    -0.025 A 
DOCKED: ATOM     22  C   UNL d   1      12.255   8.211   4.849 -0.23 -0.00    -0.021 A 
DOCKED: ATOM     23  C   UNL d   1      13.283   9.160   4.845 -0.16 +0.01    +0.066 A 
DOCKED: ATOM     24  C   UNL d   1       9.728   8.282   4.372 -0.36 +0.00    +0.051 C 
DOCKED: ATOM     25  N   UNL d   1      15.510  11.135   4.992 +0.04 -0.07    -0.248 N 
DOCKED: ATOM     26  N   UNL d   1      14.895  13.852   4.148 -0.04 +0.01    -0.248 N 
DOCKED: ATOM     27  N   UNL d   1      12.206  13.095   3.690 -0.10 +0.03    -0.248 N 
DOCKED: ATOM     28  N   UNL d   1      12.795  10.377   4.529 -0.09 -0.01    -0.248 N 
DOCKED: ATOM     29 FE   UNL d   1      13.835  12.103   4.339 -0.03 +0.00    +0.000 Fe
DOCKED: ATOM     30  O   UNL d   1      14.273  12.507   5.777 -0.07 +0.00    +0.000 OA
DOCKED: ATOM     31  O   UNL d   1      12.743  12.329   5.449 -0.13 +0.00    +0.000 OA
DOCKED: ENDROOT
DOCKED: BRANCH   6  32
DOCKED: ATOM     32  C   UNL d   1      17.480   8.268   6.305 -0.07 +0.01    +0.052 C 
DOCKED: BRANCH  32  33
DOCKED: ATOM     33  C   UNL d   1      17.619   7.171   5.253 -0.16 +0.05    +0.115 C 
DOCKED: BRANCH  33  34
DOCKED: ATOM     34  C   UNL d   1      18.405   7.625   4.049 -0.27 +0.11    +0.139 C 
DOCKED: ATOM     35  O   UNL d   1      19.525   8.087   4.198 -0.24 -0.62    -0.650 OA
DOCKED: BRANCH  34  36
DOCKED: ATOM     36  O   UNL d   1      17.887   7.559   2.805 -0.31 -0.64    -0.776 OA
DOCKED: ATOM     37  H   UNL d   1      17.340   8.265   2.441 -0.48 +0.04    +0.167 HD
DOCKED: ENDBRANCH  34  36
DOCKED: ENDBRANCH  33  34
DOCKED: ENDBRANCH  32  33
DOCKED: ENDBRANCH   6  32
DOCKED: BRANCH  22  38
DOCKED: ATOM     38  C   UNL d   1      12.342   6.758   5.239 -0.17 +0.01    +0.052 C 
DOCKED: BRANCH  38  39
DOCKED: ATOM     39  C   UNL d   1      11.853   6.508   6.664 -0.16 +0.07    +0.115 C 
DOCKED: BRANCH  39  40
DOCKED: ATOM     40  C   UNL d   1      12.370   5.209   7.231 -0.16 +0.14    +0.139 C 
DOCKED: ATOM     41  O   UNL d   1      12.656   4.291   6.480 -0.55 -0.56    -0.650 OA
DOCKED: BRANCH  40  42
DOCKED: ATOM     42  O   UNL d   1      12.573   5.060   8.554 -0.08 -1.15    -0.776 OA
DOCKED: ATOM     43  H   UNL d   1      13.376   5.381   8.982 +0.02 +0.15    +0.167 HD
DOCKED: ENDBRANCH  40  42
DOCKED: ENDBRANCH  39  40
DOCKED: ENDBRANCH  38  39
DOCKED: ENDBRANCH  22  38
DOCKED: BRANCH  12  44
DOCKED: ATOM     44  C   UNL d   1      15.680  17.368   2.994 -0.04 -0.00    +0.004 C 
DOCKED: ATOM     45  C   UNL d   1      15.262  17.841   1.821 -0.08 -0.01    +0.012 C 
DOCKED: ENDBRANCH  12  44
DOCKED: BRANCH  17  46
DOCKED: ATOM     46  C   UNL d   1       8.561  13.325   3.019 -0.50 -0.00    +0.004 C 
DOCKED: ATOM     47  C   UNL d   1       7.925  12.268   2.498 -0.44 -0.00    +0.012 C 
DOCKED: ENDBRANCH  17  46
DOCKED: TORSDOF 10
DOCKED: TER
DOCKED: ENDMDL
________________________________________________________________________________


	BEGINNING GENETIC ALGORITHM DOCKING 98 of 100
Run: 98 Seed: 1350252777 1229828942 [ Run 98 of 100 GA/GALS ]
Beginning LAMARCKIAN GENETIC ALGORITHM (LGA), with a maximum of 25000000 energy evaluations.

Final-Value: -8.924


	FINAL GENETIC ALGORITHM DOCKED STATE
	_______________________________________________


Detailed state:  trans 8.729 14.931 -11.199 quatxyzw -0.472149 0.337294 -0.277669 -0.765642 center 8.287 34.468 -0.670 ntor 10 30.2634 -122.1109 -110.8089 66.3215 -124.8193 16.4410 142.8714 -78.8681 30.9997 -19.0754
State:	  8.729  14.931 -11.199  -0.734  0.524 -0.432 -80.072     30.26 -122.11 -110.81   66.32 -124.82   16.44  142.87  -78.87   31.00  -19.08

DOCKED: MODEL       98
DOCKED: USER    Run = 98
DOCKED: USER    DPF = D:/Protein_go_brrr/autodock/final/mut_Y35F/heme_O2/dock.dpf
DOCKED: USER  
DOCKED: USER    Estimated Free Energy of Binding    =   -4.29 kcal/mol  [=(1)+(2)+(3)-(4)]
DOCKED: USER    Estimated Inhibition Constant, Ki   =  713.37 uM (micromolar)  [Temperature = 298.15 K]
DOCKED: USER    
DOCKED: USER    (1) Final Intermolecular Energy     =   -7.28 kcal/mol
DOCKED: USER        vdW + Hbond + desolv Energy     =   -6.70 kcal/mol
DOCKED: USER        Electrostatic Energy            =   -0.58 kcal/mol
DOCKED: USER    (2) Final Total Internal Energy     =   -1.65 kcal/mol
DOCKED: USER    (3) Torsional Free Energy           =   +2.98 kcal/mol
DOCKED: USER    (4) Unbound System's Energy  [=(2)] =   -1.65 kcal/mol
DOCKED: USER    
DOCKED: USER    
DOCKED: USER    NEWDPF move heme_O2_opt.pdbqt
DOCKED: USER    NEWDPF about 8.287000 34.468000 -0.670000
DOCKED: USER    NEWDPF tran0 8.729329 14.931155 -11.199110
DOCKED: USER    NEWDPF quaternion0 -0.472149 0.337294 -0.277669 -0.765642
DOCKED: USER    NEWDPF axisangle0 -0.733986 0.524346 -0.431654 -80.071640
DOCKED: USER    NEWDPF quat0 -0.733986 0.524346 -0.431654 -80.071640
DOCKED: USER    NEWDPF dihe0 30.26 -122.11 -110.81 66.32 -124.82 16.44 142.87 -78.87 31.00 -19.08 
DOCKED: USER  keepresnum = 1 
DOCKED: USER  
DOCKED: REMARK  10 active torsions:
DOCKED: REMARK  status: ('A' for Active; 'I' for Inactive)
DOCKED: REMARK    1  A    between atoms: C_6  and  C_10 
DOCKED: REMARK    2  A    between atoms: C_10  and  C_11 
DOCKED: REMARK    3  A    between atoms: C_11  and  C_12 
DOCKED: REMARK    4  A    between atoms: C_12  and  O_14 
DOCKED: REMARK    5  A    between atoms: C_17  and  C_20 
DOCKED: REMARK    6  A    between atoms: C_24  and  C_27 
DOCKED: REMARK    7  A    between atoms: C_31  and  C_34 
DOCKED: REMARK    8  A    between atoms: C_34  and  C_35 
DOCKED: REMARK    9  A    between atoms: C_35  and  C_36 
DOCKED: REMARK   10  A    between atoms: C_36  and  O_38 
DOCKED: USER                              x       y       z     vdW  Elec       q    Type
DOCKED: USER                           _______ _______ _______ _____ _____    ______ ____
DOCKED: ROOT
DOCKED: ATOM      1  C   UNL d   1       7.014  16.134 -11.533 -0.13 +0.00    +0.064 A 
DOCKED: ATOM      2  C   UNL d   1      10.337  16.155  -8.139 -0.19 -0.00    +0.064 A 
DOCKED: ATOM      3  C   UNL d   1      12.547  12.391 -10.149 -0.07 -0.02    +0.064 C 
DOCKED: ATOM      4  C   UNL d   1       9.407  12.660 -13.909 +0.08 -0.00    +0.064 A 
DOCKED: ATOM      5  C   UNL d   1       7.739  16.448 -10.447 -0.13 +0.01    +0.066 A 
DOCKED: ATOM      6  C   UNL d   1       7.416  17.482  -9.562 -0.12 -0.00    -0.021 A 
DOCKED: ATOM      7  C   UNL d   1       8.401  17.517  -8.603 -0.14 -0.00    -0.025 A 
DOCKED: ATOM      8  C   UNL d   1       9.272  16.472  -8.901 -0.17 +0.00    +0.066 A 
DOCKED: ATOM      9  C   UNL d   1       8.487  18.535  -7.488 -0.13 +0.01    +0.051 C 
DOCKED: ATOM     10  C   UNL d   1      11.273  15.058  -8.387 -0.21 -0.01    +0.066 A 
DOCKED: ATOM     11  C   UNL d   1      12.263  14.671  -7.477 -0.27 +0.00    -0.021 A 
DOCKED: ATOM     12  C   UNL d   1      12.900  13.576  -8.031 -0.29 -0.00    +0.000 A 
DOCKED: ATOM     13  C   UNL d   1      12.255  13.359  -9.281 -0.24 -0.02    +0.070 A 
DOCKED: ATOM     14  C   UNL d   1      12.571  15.302  -6.125 -0.26 -0.02    +0.052 C 
DOCKED: ATOM     15  C   UNL d   1      11.942  12.160 -11.439 -0.23 -0.02    +0.066 A 
DOCKED: ATOM     16  C   UNL d   1      12.402  11.232 -12.373 -0.24 +0.01    -0.021 A 
DOCKED: ATOM     17  C   UNL d   1      11.523  11.292 -13.454 -0.17 -0.00    +0.000 A 
DOCKED: ATOM     18  C   UNL d   1      10.578  12.263 -13.093 -0.08 -0.00    +0.070 A 
DOCKED: ATOM     19  C   UNL d   1      13.657  10.420 -12.176 -0.33 -0.02    +0.052 C 
DOCKED: ATOM     20  C   UNL d   1       8.507  13.618 -13.613 -0.16 +0.00    +0.066 A 
DOCKED: ATOM     21  C   UNL d   1       7.413  13.935 -14.413 -0.13 -0.00    -0.025 A 
DOCKED: ATOM     22  C   UNL d   1       6.705  14.905 -13.738 -0.12 -0.00    -0.021 A 
DOCKED: ATOM     23  C   UNL d   1       7.406  15.156 -12.555 -0.16 +0.00    +0.066 A 
DOCKED: ATOM     24  C   UNL d   1       7.064  13.347 -15.755 -0.09 -0.00    +0.051 C 
DOCKED: ATOM     25  N   UNL d   1       8.900  15.856 -10.073 -0.11 -0.01    -0.248 N 
DOCKED: ATOM     26  N   UNL d   1      11.270  14.268  -9.491 -0.13 +0.03    -0.248 N 
DOCKED: ATOM     27  N   UNL d   1      10.891  12.832 -11.901 -0.15 +0.03    -0.248 N 
DOCKED: ATOM     28  N   UNL d   1       8.524  14.404 -12.504 -0.13 -0.00    -0.248 N 
DOCKED: ATOM     29 FE   UNL d   1       9.888  14.335 -11.010 -0.04 -0.00    +0.000 Fe
DOCKED: ATOM     30  O   UNL d   1      10.646  15.694 -11.049 -0.09 -0.00    +0.000 OA
DOCKED: ATOM     31  O   UNL d   1      10.645  14.764 -12.320 -0.09 -0.00    +0.000 OA
DOCKED: ENDROOT
DOCKED: BRANCH   6  32
DOCKED: ATOM     32  C   UNL d   1       6.302  18.488  -9.687 -0.07 +0.01    +0.052 C 
DOCKED: BRANCH  32  33
DOCKED: ATOM     33  C   UNL d   1       5.252  18.349  -8.589 -0.12 +0.04    +0.115 C 
DOCKED: BRANCH  33  34
DOCKED: ATOM     34  C   UNL d   1       4.955  16.907  -8.257 -0.23 +0.06    +0.139 C 
DOCKED: ATOM     35  O   UNL d   1       5.669  16.310  -7.468 -0.09 -0.43    -0.650 OA
DOCKED: BRANCH  34  36
DOCKED: ATOM     36  O   UNL d   1       3.929  16.249  -8.836 +0.07 -0.22    -0.776 OA
DOCKED: ATOM     37  H   UNL d   1       3.628  16.456  -9.728 +0.04 +0.03    +0.167 HD
DOCKED: ENDBRANCH  34  36
DOCKED: ENDBRANCH  33  34
DOCKED: ENDBRANCH  32  33
DOCKED: ENDBRANCH   6  32
DOCKED: BRANCH  22  38
DOCKED: ATOM     38  C   UNL d   1       5.461  15.592 -14.239 -0.07 +0.00    +0.052 C 
DOCKED: BRANCH  38  39
DOCKED: ATOM     39  C   UNL d   1       4.199  14.773 -13.979 -0.13 +0.00    +0.115 C 
DOCKED: BRANCH  39  40
DOCKED: ATOM     40  C   UNL d   1       3.440  15.253 -12.767 -0.17 +0.00    +0.139 C 
DOCKED: ATOM     41  O   UNL d   1       2.266  14.948 -12.627 -0.04 -0.00    -0.650 OA
DOCKED: BRANCH  40  42
DOCKED: ATOM     42  O   UNL d   1       4.048  15.973 -11.805 +0.02 -0.05    -0.776 OA
DOCKED: ATOM     43  H   UNL d   1       4.099  15.658 -10.895 +0.04 +0.02    +0.167 HD
DOCKED: ENDBRANCH  40  42
DOCKED: ENDBRANCH  39  40
DOCKED: ENDBRANCH  38  39
DOCKED: ENDBRANCH  22  38
DOCKED: BRANCH  12  44
DOCKED: ATOM     44  C   UNL d   1      14.037  12.865  -7.327 -0.36 -0.00    +0.004 C 
DOCKED: ATOM     45  C   UNL d   1      13.994  12.190  -6.179 -0.51 -0.00    +0.012 C 
DOCKED: ENDBRANCH  12  44
DOCKED: BRANCH  17  46
DOCKED: ATOM     46  C   UNL d   1      11.534  10.574 -14.777 -0.15 -0.00    +0.004 C 
DOCKED: ATOM     47  C   UNL d   1      11.497   9.255 -15.005 -0.20 -0.00    +0.012 C 
DOCKED: ENDBRANCH  17  46
DOCKED: TORSDOF 10
DOCKED: TER
DOCKED: ENDMDL
________________________________________________________________________________


	BEGINNING GENETIC ALGORITHM DOCKING 99 of 100
Run: 99 Seed: 1111312616 1621325989 [ Run 99 of 100 GA/GALS ]
Beginning LAMARCKIAN GENETIC ALGORITHM (LGA), with a maximum of 25000000 energy evaluations.

Final-Value: -8.930


	FINAL GENETIC ALGORITHM DOCKED STATE
	_______________________________________________


Detailed state:  trans -16.416 -1.125 -0.030 quatxyzw 0.430913 -0.723238 -0.329519 0.427386 center 8.287 34.468 -0.670 ntor 10 147.1660 -9.9895 -25.7906 113.4845 -120.9060 -47.7609 -112.5466 173.9767 -174.0338 -179.9291
State:	-16.416  -1.125  -0.030   0.477 -0.800 -0.364 129.396    147.17   -9.99  -25.79  113.48 -120.91  -47.76 -112.55  173.98 -174.03 -179.93

DOCKED: MODEL       99
DOCKED: USER    Run = 99
DOCKED: USER    DPF = D:/Protein_go_brrr/autodock/final/mut_Y35F/heme_O2/dock.dpf
DOCKED: USER  
DOCKED: USER    Estimated Free Energy of Binding    =   -3.57 kcal/mol  [=(1)+(2)+(3)-(4)]
DOCKED: USER    Estimated Inhibition Constant, Ki   =    2.41 mM (millimolar)  [Temperature = 298.15 K]
DOCKED: USER    
DOCKED: USER    (1) Final Intermolecular Energy     =   -6.55 kcal/mol
DOCKED: USER        vdW + Hbond + desolv Energy     =   -6.20 kcal/mol
DOCKED: USER        Electrostatic Energy            =   -0.35 kcal/mol
DOCKED: USER    (2) Final Total Internal Energy     =   -2.38 kcal/mol
DOCKED: USER    (3) Torsional Free Energy           =   +2.98 kcal/mol
DOCKED: USER    (4) Unbound System's Energy  [=(2)] =   -2.38 kcal/mol
DOCKED: USER    
DOCKED: USER    
DOCKED: USER    NEWDPF move heme_O2_opt.pdbqt
DOCKED: USER    NEWDPF about 8.287000 34.468000 -0.670000
DOCKED: USER    NEWDPF tran0 -16.416273 -1.125236 -0.030177
DOCKED: USER    NEWDPF quaternion0 0.430913 -0.723238 -0.329519 0.427386
DOCKED: USER    NEWDPF axisangle0 0.476637 -0.799980 -0.364484 129.396458
DOCKED: USER    NEWDPF quat0 0.476637 -0.799980 -0.364484 129.396458
DOCKED: USER    NEWDPF dihe0 147.17 -9.99 -25.79 113.48 -120.91 -47.76 -112.55 173.98 -174.03 -179.93 
DOCKED: USER  keepresnum = 1 
DOCKED: USER  
DOCKED: REMARK  10 active torsions:
DOCKED: REMARK  status: ('A' for Active; 'I' for Inactive)
DOCKED: REMARK    1  A    between atoms: C_6  and  C_10 
DOCKED: REMARK    2  A    between atoms: C_10  and  C_11 
DOCKED: REMARK    3  A    between atoms: C_11  and  C_12 
DOCKED: REMARK    4  A    between atoms: C_12  and  O_14 
DOCKED: REMARK    5  A    between atoms: C_17  and  C_20 
DOCKED: REMARK    6  A    between atoms: C_24  and  C_27 
DOCKED: REMARK    7  A    between atoms: C_31  and  C_34 
DOCKED: REMARK    8  A    between atoms: C_34  and  C_35 
DOCKED: REMARK    9  A    between atoms: C_35  and  C_36 
DOCKED: REMARK   10  A    between atoms: C_36  and  O_38 
DOCKED: USER                              x       y       z     vdW  Elec       q    Type
DOCKED: USER                           _______ _______ _______ _____ _____    ______ ____
DOCKED: ROOT
DOCKED: ATOM      1  C   UNL d   1     -16.736  -0.915   2.056 -0.30 +0.02    +0.064 A 
DOCKED: ATOM      2  C   UNL d   1     -13.339   0.694  -0.847 -0.23 +0.01    +0.064 A 
DOCKED: ATOM      3  C   UNL d   1     -15.396  -1.477  -4.608 -0.13 +0.01    +0.064 C 
DOCKED: ATOM      4  C   UNL d   1     -19.155  -2.740  -1.720 -0.06 +0.03    +0.064 A 
DOCKED: ATOM      5  C   UNL d   1     -15.645  -0.298   1.573 -0.25 +0.02    +0.066 A 
DOCKED: ATOM      6  C   UNL d   1     -14.748   0.433   2.357 -0.34 -0.01    -0.021 A 
DOCKED: ATOM      7  C   UNL d   1     -13.788   0.936   1.510 -0.32 -0.00    -0.025 A 
DOCKED: ATOM      8  C   UNL d   1     -14.098   0.457   0.240 -0.22 +0.01    +0.066 A 
DOCKED: ATOM      9  C   UNL d   1     -12.659   1.852   1.929 -0.42 +0.01    +0.051 C 
DOCKED: ATOM     10  C   UNL d   1     -13.600   0.200  -2.200 -0.26 +0.01    +0.066 A 
DOCKED: ATOM     11  C   UNL d   1     -12.695   0.338  -3.258 -0.30 -0.00    -0.021 A 
DOCKED: ATOM     12  C   UNL d   1     -13.262  -0.297  -4.347 -0.23 +0.00    +0.000 A 
DOCKED: ATOM     13  C   UNL d   1     -14.515  -0.787  -3.884 -0.17 +0.01    +0.070 A 
DOCKED: ATOM     14  C   UNL d   1     -11.334   1.024  -3.224 -0.26 -0.00    +0.052 C 
DOCKED: ATOM     15  C   UNL d   1     -16.689  -1.960  -4.188 -0.08 +0.01    +0.066 A 
DOCKED: ATOM     16  C   UNL d   1     -17.634  -2.532  -5.039 -0.04 -0.00    -0.021 A 
DOCKED: ATOM     17  C   UNL d   1     -18.715  -2.899  -4.237 -0.04 +0.00    +0.000 A 
DOCKED: ATOM     18  C   UNL d   1     -18.343  -2.521  -2.940 -0.07 +0.02    +0.070 A 
DOCKED: ATOM     19  C   UNL d   1     -17.447  -2.626  -6.532 -0.03 +0.00    +0.052 C 
DOCKED: ATOM     20  C   UNL d   1     -18.847  -2.350  -0.467 -0.06 +0.03    +0.066 A 
DOCKED: ATOM     21  C   UNL d   1     -19.644  -2.601   0.646 -0.11 -0.01    -0.025 A 
DOCKED: ATOM     22  C   UNL d   1     -18.958  -2.112   1.735 -0.20 -0.01    -0.021 A 
DOCKED: ATOM     23  C   UNL d   1     -17.770  -1.563   1.241 -0.19 +0.03    +0.066 A 
DOCKED: ATOM     24  C   UNL d   1     -20.994  -3.270   0.669 -0.06 +0.01    +0.051 C 
DOCKED: ATOM     25  N   UNL d   1     -15.278  -0.249   0.269 -0.09 -0.07    -0.248 N 
DOCKED: ATOM     26  N   UNL d   1     -14.714  -0.476  -2.578 -0.13 -0.04    -0.248 N 
DOCKED: ATOM     27  N   UNL d   1     -17.143  -1.885  -2.940 -0.07 -0.06    -0.248 N 
DOCKED: ATOM     28  N   UNL d   1     -17.728  -1.670  -0.103 -0.05 -0.13    -0.248 N 
DOCKED: ATOM     29 FE   UNL d   1     -16.234  -1.078  -1.334 -0.04 +0.00    +0.000 Fe
DOCKED: ATOM     30  O   UNL d   1     -16.255   0.478  -1.326 -0.11 +0.00    +0.000 OA
DOCKED: ATOM     31  O   UNL d   1     -17.538  -0.318  -1.775 -0.08 +0.00    +0.000 OA
DOCKED: ENDROOT
DOCKED: BRANCH   6  32
DOCKED: ATOM     32  C   UNL d   1     -14.860   0.765   3.822 -0.43 +0.02    +0.052 C 
DOCKED: BRANCH  32  33
DOCKED: ATOM     33  C   UNL d   1     -15.591   2.080   4.077 -0.21 +0.03    +0.115 C 
DOCKED: BRANCH  33  34
DOCKED: ATOM     34  C   UNL d   1     -17.039   2.025   3.655 -0.14 +0.03    +0.139 C 
DOCKED: ATOM     35  O   UNL d   1     -17.883   1.632   4.444 +0.04 -0.14    -0.650 OA
DOCKED: BRANCH  34  36
DOCKED: ATOM     36  O   UNL d   1     -17.421   2.374   2.410 +0.07 -0.12    -0.776 OA
DOCKED: ATOM     37  H   UNL d   1     -18.167   1.952   1.967 +0.03 +0.02    +0.167 HD
DOCKED: ENDBRANCH  34  36
DOCKED: ENDBRANCH  33  34
DOCKED: ENDBRANCH  32  33
DOCKED: ENDBRANCH   6  32
DOCKED: BRANCH  22  38
DOCKED: ATOM     38  C   UNL d   1     -19.451  -2.118   3.159 -0.13 +0.01    +0.052 C 
DOCKED: BRANCH  38  39
DOCKED: ATOM     39  C   UNL d   1     -20.469  -1.011   3.426 -0.12 +0.02    +0.115 C 
DOCKED: BRANCH  39  40
DOCKED: ATOM     40  C   UNL d   1     -20.615  -0.067   2.259 -0.05 +0.02    +0.139 C 
DOCKED: ATOM     41  O   UNL d   1     -21.522  -0.229   1.459 +0.02 -0.06    -0.650 OA
DOCKED: BRANCH  40  42
DOCKED: ATOM     42  O   UNL d   1     -19.789   0.987   2.109 +0.04 -0.10    -0.776 OA
DOCKED: ATOM     43  H   UNL d   1     -19.151   1.229   2.791 +0.03 +0.02    +0.167 HD
DOCKED: ENDBRANCH  40  42
DOCKED: ENDBRANCH  39  40
DOCKED: ENDBRANCH  38  39
DOCKED: ENDBRANCH  22  38
DOCKED: BRANCH  12  44
DOCKED: ATOM     44  C   UNL d   1     -12.566  -0.366  -5.690 -0.19 +0.00    +0.004 C 
DOCKED: ATOM     45  C   UNL d   1     -12.660  -1.323  -6.612 -0.19 +0.00    +0.012 C 
DOCKED: ENDBRANCH  12  44
DOCKED: BRANCH  17  46
DOCKED: ATOM     46  C   UNL d   1     -20.048  -3.504  -4.591 -0.01 +0.00    +0.004 C 
DOCKED: ATOM     47  C   UNL d   1     -20.469  -4.758  -4.387 -0.01 +0.00    +0.012 C 
DOCKED: ENDBRANCH  17  46
DOCKED: TORSDOF 10
DOCKED: TER
DOCKED: ENDMDL
________________________________________________________________________________


	BEGINNING GENETIC ALGORITHM DOCKING 100 of 100
Run: 100 Seed: 1988198149 215626999 [ Run 100 of 100 GA/GALS ]
Beginning LAMARCKIAN GENETIC ALGORITHM (LGA), with a maximum of 25000000 energy evaluations.

Final-Value: -8.785


	FINAL GENETIC ALGORITHM DOCKED STATE
	_______________________________________________


Detailed state:  trans -14.391 12.420 8.322 quatxyzw -0.693539 -0.557154 -0.267237 0.370362 center 8.287 34.468 -0.670 ntor 10 62.4143 -55.7720 -22.9943 -113.4394 -144.2054 -70.7130 16.7180 116.4965 179.7527 -161.2564
State:	-14.391  12.420   8.322  -0.747 -0.600 -0.288 136.524     62.41  -55.77  -22.99 -113.44 -144.21  -70.71   16.72  116.50  179.75 -161.26

DOCKED: MODEL      100
DOCKED: USER    Run = 100
DOCKED: USER    DPF = D:/Protein_go_brrr/autodock/final/mut_Y35F/heme_O2/dock.dpf
DOCKED: USER  
DOCKED: USER    Estimated Free Energy of Binding    =   -5.23 kcal/mol  [=(1)+(2)+(3)-(4)]
DOCKED: USER    Estimated Inhibition Constant, Ki   =  147.73 uM (micromolar)  [Temperature = 298.15 K]
DOCKED: USER    
DOCKED: USER    (1) Final Intermolecular Energy     =   -8.21 kcal/mol
DOCKED: USER        vdW + Hbond + desolv Energy     =   -3.83 kcal/mol
DOCKED: USER        Electrostatic Energy            =   -4.38 kcal/mol
DOCKED: USER    (2) Final Total Internal Energy     =   -0.58 kcal/mol
DOCKED: USER    (3) Torsional Free Energy           =   +2.98 kcal/mol
DOCKED: USER    (4) Unbound System's Energy  [=(2)] =   -0.58 kcal/mol
DOCKED: USER    
DOCKED: USER    
DOCKED: USER    NEWDPF move heme_O2_opt.pdbqt
DOCKED: USER    NEWDPF about 8.287000 34.468000 -0.670000
DOCKED: USER    NEWDPF tran0 -14.390918 12.420092 8.321666
DOCKED: USER    NEWDPF quaternion0 -0.693539 -0.557154 -0.267237 0.370362
DOCKED: USER    NEWDPF axisangle0 -0.746634 -0.599808 -0.287696 136.524133
DOCKED: USER    NEWDPF quat0 -0.746634 -0.599808 -0.287696 136.524133
DOCKED: USER    NEWDPF dihe0 62.41 -55.77 -22.99 -113.44 -144.21 -70.71 16.72 116.50 179.75 -161.26 
DOCKED: USER  keepresnum = 1 
DOCKED: USER  
DOCKED: REMARK  10 active torsions:
DOCKED: REMARK  status: ('A' for Active; 'I' for Inactive)
DOCKED: REMARK    1  A    between atoms: C_6  and  C_10 
DOCKED: REMARK    2  A    between atoms: C_10  and  C_11 
DOCKED: REMARK    3  A    between atoms: C_11  and  C_12 
DOCKED: REMARK    4  A    between atoms: C_12  and  O_14 
DOCKED: REMARK    5  A    between atoms: C_17  and  C_20 
DOCKED: REMARK    6  A    between atoms: C_24  and  C_27 
DOCKED: REMARK    7  A    between atoms: C_31  and  C_34 
DOCKED: REMARK    8  A    between atoms: C_34  and  C_35 
DOCKED: REMARK    9  A    between atoms: C_35  and  C_36 
DOCKED: REMARK   10  A    between atoms: C_36  and  O_38 
DOCKED: USER                              x       y       z     vdW  Elec       q    Type
DOCKED: USER                           _______ _______ _______ _____ _____    ______ ____
DOCKED: ROOT
DOCKED: ATOM      1  C   UNL d   1     -15.113  10.714   9.355 -0.04 +0.05    +0.064 A 
DOCKED: ATOM      2  C   UNL d   1     -13.499  11.340   4.932 -0.04 +0.01    +0.064 A 
DOCKED: ATOM      3  C   UNL d   1     -12.817  16.027   5.746 -0.11 -0.01    +0.064 C 
DOCKED: ATOM      4  C   UNL d   1     -14.025  15.304  10.445 -0.03 -0.01    +0.064 A 
DOCKED: ATOM      5  C   UNL d   1     -14.728  10.502   8.086 -0.04 +0.04    +0.066 A 
DOCKED: ATOM      6  C   UNL d   1     -14.792   9.261   7.446 -0.04 -0.01    -0.021 A 
DOCKED: ATOM      7  C   UNL d   1     -14.285   9.432   6.180 -0.03 -0.01    -0.025 A 
DOCKED: ATOM      8  C   UNL d   1     -13.970  10.783   6.064 -0.03 +0.02    +0.066 A 
DOCKED: ATOM      9  C   UNL d   1     -14.097   8.324   5.166 -0.08 +0.02    +0.051 C 
DOCKED: ATOM     10  C   UNL d   1     -13.173  12.755   4.744 -0.09 +0.00    +0.066 A 
DOCKED: ATOM     11  C   UNL d   1     -12.844  13.310   3.503 -0.10 +0.00    -0.021 A 
DOCKED: ATOM     12  C   UNL d   1     -12.662  14.664   3.713 -0.13 -0.00    +0.000 A 
DOCKED: ATOM     13  C   UNL d   1     -12.882  14.861   5.105 -0.10 -0.01    +0.070 A 
DOCKED: ATOM     14  C   UNL d   1     -12.736  12.584   2.167 -0.06 -0.00    +0.052 C 
DOCKED: ATOM     15  C   UNL d   1     -12.999  16.263   7.158 -0.05 -0.02    +0.066 A 
DOCKED: ATOM     16  C   UNL d   1     -12.757  17.480   7.794 -0.12 +0.01    -0.021 A 
DOCKED: ATOM     17  C   UNL d   1     -13.093  17.297   9.135 -0.13 -0.00    +0.000 A 
DOCKED: ATOM     18  C   UNL d   1     -13.523  15.965   9.217 -0.08 -0.02    +0.070 A 
DOCKED: ATOM     19  C   UNL d   1     -12.180  18.678   7.084 -0.17 -0.03    +0.052 C 
DOCKED: ATOM     20  C   UNL d   1     -14.404  14.017  10.568 -0.02 +0.01    +0.066 A 
DOCKED: ATOM     21  C   UNL d   1     -14.886  13.455  11.747 -0.01 -0.00    -0.025 A 
DOCKED: ATOM     22  C   UNL d   1     -15.227  12.155  11.449 -0.03 -0.01    -0.021 A 
DOCKED: ATOM     23  C   UNL d   1     -14.922  11.966  10.097 -0.04 +0.03    +0.066 A 
DOCKED: ATOM     24  C   UNL d   1     -15.011  14.124  13.092 -0.00 +0.00    +0.051 C 
DOCKED: ATOM     25  N   UNL d   1     -14.182  11.428   7.261 -0.01 -0.09    -0.248 N 
DOCKED: ATOM     26  N   UNL d   1     -13.188  13.693   5.725 -0.08 +0.01    -0.248 N 
DOCKED: ATOM     27  N   UNL d   1     -13.388  15.332   8.024 -0.07 +0.03    -0.248 N 
DOCKED: ATOM     28  N   UNL d   1     -14.381  13.087   9.577 -0.01 -0.06    -0.248 N 
DOCKED: ATOM     29 FE   UNL d   1     -13.788  13.390   7.666 -0.02 +0.00    +0.000 Fe
DOCKED: ATOM     30  O   UNL d   1     -12.512  12.522   7.464 -0.19 +0.00    +0.000 OA
DOCKED: ATOM     31  O   UNL d   1     -12.537  13.622   8.591 -0.20 +0.00    +0.000 OA
DOCKED: ENDROOT
DOCKED: BRANCH   6  32
DOCKED: ATOM     32  C   UNL d   1     -15.185   7.934   8.043 -0.06 +0.04    +0.052 C 
DOCKED: BRANCH  32  33
DOCKED: ATOM     33  C   UNL d   1     -13.984   7.103   8.482 -0.08 +0.16    +0.115 C 
DOCKED: BRANCH  33  34
DOCKED: ATOM     34  C   UNL d   1     -14.347   5.662   8.747 -0.07 +0.24    +0.139 C 
DOCKED: ATOM     35  O   UNL d   1     -14.735   4.959   7.828 -0.43 -1.18    -0.650 OA
DOCKED: BRANCH  34  36
DOCKED: ATOM     36  O   UNL d   1     -14.279   5.137   9.987 +0.15 -1.67    -0.776 OA
DOCKED: ATOM     37  H   UNL d   1     -14.826   5.464  10.711 +0.03 +0.24    +0.167 HD
DOCKED: ENDBRANCH  34  36
DOCKED: ENDBRANCH  33  34
DOCKED: ENDBRANCH  32  33
DOCKED: ENDBRANCH   6  32
DOCKED: BRANCH  22  38
DOCKED: ATOM     38  C   UNL d   1     -15.754  11.138  12.428 -0.03 +0.03    +0.052 C 
DOCKED: BRANCH  38  39
DOCKED: ATOM     39  C   UNL d   1     -14.785  10.883  13.580 -0.06 +0.06    +0.115 C 
DOCKED: BRANCH  39  40
DOCKED: ATOM     40  C   UNL d   1     -13.491  10.260  13.119 -0.04 +0.19    +0.139 C 
DOCKED: ATOM     41  O   UNL d   1     -12.669  10.939  12.525 -0.64 -1.16    -0.650 OA
DOCKED: BRANCH  40  42
DOCKED: ATOM     42  O   UNL d   1     -13.201   8.974  13.396 -0.09 -1.44    -0.776 OA
DOCKED: ATOM     43  H   UNL d   1     -13.234   8.632  14.297 +0.02 +0.16    +0.167 HD
DOCKED: ENDBRANCH  40  42
DOCKED: ENDBRANCH  39  40
DOCKED: ENDBRANCH  38  39
DOCKED: ENDBRANCH  22  38
DOCKED: BRANCH  12  44
DOCKED: ATOM     44  C   UNL d   1     -12.299  15.611   2.588 -0.07 -0.00    +0.004 C 
DOCKED: ATOM     45  C   UNL d   1     -12.567  16.913   2.496 -0.10 -0.00    +0.012 C 
DOCKED: ENDBRANCH  12  44
DOCKED: BRANCH  17  46
DOCKED: ATOM     46  C   UNL d   1     -12.991  18.227  10.315 -0.11 -0.00    +0.004 C 
DOCKED: ATOM     47  C   UNL d   1     -12.294  18.056  11.446 -0.09 -0.01    +0.012 C 
DOCKED: ENDBRANCH  17  46
DOCKED: TORSDOF 10
DOCKED: TER
DOCKED: ENDMDL
________________________________________________________________________________

DPF> analysis                             # perform a ranked cluster analysis


		CLUSTER ANALYSIS OF CONFORMATIONS
		_________________________________

Number of conformations = 100

RMSD cluster analysis will be performed using the ligand atoms only (47 / 47 total atoms).

Outputting structurally similar clusters, ranked in order of increasing energy.


________________________________________________________________________________

Number of distinct conformational clusters found = 60,  out of 100 runs,
Using an rmsd-tolerance of 2.0 A


	CLUSTERING HISTOGRAM
	____________________

________________________________________________________________________________
     |           |     |           |     |                                    
Clus | Lowest    | Run | Mean      | Num | Histogram                          
-ter | Binding   |     | Binding   | in  |                                    
Rank | Energy    |     | Energy    | Clus|    5    10   15   20   25   30   35
_____|___________|_____|___________|_____|____:____|____:____|____:____|____:___
   1 |     -8.01 |  85 |     -7.27 |   7 |#######
   2 |     -7.75 |  22 |     -6.69 |   8 |########
   3 |     -7.19 |  73 |     -7.19 |   1 |#
   4 |     -6.66 |  16 |     -6.66 |   1 |#
   5 |     -6.50 |  18 |     -6.34 |   2 |##
   6 |     -6.48 |  81 |     -6.48 |   1 |#
   7 |     -6.40 |  19 |     -6.02 |   4 |####
   8 |     -6.26 |  10 |     -5.75 |   6 |######
   9 |     -6.25 |  44 |     -5.57 |   4 |####
  10 |     -6.20 |  23 |     -5.85 |   2 |##
  11 |     -6.19 |  57 |     -5.97 |   2 |##
  12 |     -6.11 |   3 |     -6.11 |   1 |#
  13 |     -6.08 |  15 |     -6.08 |   1 |#
  14 |     -6.07 |   9 |     -5.80 |   2 |##
  15 |     -5.77 |  72 |     -5.67 |   3 |###
  16 |     -5.74 |  61 |     -5.74 |   1 |#
  17 |     -5.71 |  59 |     -5.71 |   1 |#
  18 |     -5.66 |  50 |     -5.66 |   1 |#
  19 |     -5.64 |  84 |     -5.60 |   2 |##
  20 |     -5.58 |  27 |     -4.58 |   2 |##
  21 |     -5.57 |  40 |     -5.57 |   1 |#
  22 |     -5.52 |  56 |     -5.52 |   1 |#
  23 |     -5.42 |  46 |     -4.72 |   4 |####
  24 |     -5.40 |  20 |     -5.40 |   1 |#
  25 |     -5.33 |  74 |     -5.33 |   1 |#
  26 |     -5.30 |  66 |     -5.30 |   1 |#
  27 |     -5.28 |  92 |     -5.28 |   1 |#
  28 |     -5.23 |  32 |     -5.23 |   2 |##
  29 |     -5.23 | 100 |     -5.23 |   1 |#
  30 |     -5.22 |  62 |     -5.22 |   1 |#
  31 |     -5.19 |  13 |     -5.19 |   1 |#
  32 |     -5.17 |  47 |     -5.17 |   1 |#
  33 |     -5.13 |   2 |     -5.13 |   1 |#
  34 |     -5.12 |  38 |     -5.12 |   1 |#
  35 |     -5.07 |  55 |     -5.07 |   1 |#
  36 |     -5.03 |  70 |     -5.03 |   1 |#
  37 |     -4.94 |  90 |     -4.94 |   1 |#
  38 |     -4.91 |  39 |     -4.91 |   1 |#
  39 |     -4.90 |  25 |     -4.63 |   2 |##
  40 |     -4.84 |  88 |     -4.84 |   1 |#
  41 |     -4.83 |  60 |     -4.83 |   1 |#
  42 |     -4.75 |  34 |     -4.75 |   1 |#
  43 |     -4.69 |  76 |     -4.64 |   2 |##
  44 |     -4.60 |  95 |     -4.60 |   1 |#
  45 |     -4.56 |   4 |     -4.56 |   1 |#
  46 |     -4.55 |  29 |     -4.38 |   3 |###
  47 |     -4.46 |  75 |     -4.46 |   1 |#
  48 |     -4.31 |  77 |     -4.31 |   1 |#
  49 |     -4.29 |  98 |     -4.29 |   1 |#
  50 |     -4.18 |  49 |     -4.18 |   1 |#
  51 |     -4.11 |   6 |     -4.11 |   1 |#
  52 |     -4.08 |  41 |     -4.08 |   1 |#
  53 |     -4.01 |  45 |     -4.01 |   1 |#
  54 |     -4.00 |  36 |     -4.00 |   1 |#
  55 |     -3.94 |  68 |     -3.94 |   1 |#
  56 |     -3.93 |  42 |     -3.93 |   1 |#
  57 |     -3.77 |  52 |     -3.77 |   1 |#
  58 |     -3.69 |  54 |     -3.69 |   1 |#
  59 |     -3.44 |   5 |     -3.44 |   1 |#
  60 |     -3.29 |  21 |     -3.29 |   1 |#
_____|___________|_____|___________|_____|______________________________________


Number of multi-member conformational clusters found = 17, out of 100 runs.

	RMSD TABLE
	__________

_____________________________________________________________________
     |      |      |           |         |                 |
Rank | Sub- | Run  | Binding   | Cluster | Reference       | Grep
     | Rank |      | Energy    | RMSD    | RMSD            | Pattern
_____|______|______|___________|_________|_________________|___________
   1      1     85       -8.01      0.00     21.38           RANKING
   1      2     35       -7.99      0.73     21.71           RANKING
   1      3     37       -7.76      0.44     21.59           RANKING
   1      4     26       -7.21      1.34     21.98           RANKING
   1      5     97       -6.95      1.47     22.10           RANKING
   1      6     67       -6.56      1.71     22.57           RANKING
   1      7     28       -6.40      1.51     21.63           RANKING
   2      1     22       -7.75      0.00     21.81           RANKING
   2      2      1       -7.31      0.52     21.60           RANKING
   2      3     83       -6.86      1.08     22.15           RANKING
   2      4     14       -6.68      1.10     21.27           RANKING
   2      5     11       -6.52      1.02     21.86           RANKING
   2      6     86       -6.44      1.89     21.03           RANKING
   2      7     63       -6.32      1.07     21.87           RANKING
   2      8     65       -5.68      0.99     21.87           RANKING
   3      1     73       -7.19      0.00     22.99           RANKING
   4      1     16       -6.66      0.00     26.25           RANKING
   5      1     18       -6.50      0.00     33.14           RANKING
   5      2     33       -6.18      1.23     33.10           RANKING
   6      1     81       -6.48      0.00     49.24           RANKING
   7      1     19       -6.40      0.00     32.97           RANKING
   7      2     12       -6.23      0.72     33.06           RANKING
   7      3     64       -5.98      1.12     33.49           RANKING
   7      4     94       -5.48      0.69     32.74           RANKING
   8      1     10       -6.26      0.00     25.61           RANKING
   8      2     79       -6.18      0.58     25.78           RANKING
   8      3     53       -5.67      1.62     26.94           RANKING
   8      4     89       -5.49      1.61     26.87           RANKING
   8      5     78       -5.49      0.73     25.36           RANKING
   8      6     24       -5.43      0.63     25.75           RANKING
   9      1     44       -6.25      0.00     52.66           RANKING
   9      2     93       -5.87      1.50     51.69           RANKING
   9      3     31       -5.70      0.67     52.68           RANKING
   9      4     51       -4.46      1.74     53.11           RANKING
  10      1     23       -6.20      0.00     50.76           RANKING
  10      2     48       -5.50      1.90     50.49           RANKING
  11      1     57       -6.19      0.00     32.09           RANKING
  11      2     96       -5.74      1.05     32.05           RANKING
  12      1      3       -6.11      0.00     46.82           RANKING
  13      1     15       -6.08      0.00     37.09           RANKING
  14      1      9       -6.07      0.00     31.94           RANKING
  14      2     82       -5.54      0.75     32.08           RANKING
  15      1     72       -5.77      0.00     19.58           RANKING
  15      2     30       -5.70      1.03     20.33           RANKING
  15      3     58       -5.53      0.84     20.10           RANKING
  16      1     61       -5.74      0.00     47.72           RANKING
  17      1     59       -5.71      0.00     16.33           RANKING
  18      1     50       -5.66      0.00     37.10           RANKING
  19      1     84       -5.64      0.00     32.40           RANKING
  19      2      8       -5.55      1.38     32.40           RANKING
  20      1     27       -5.58      0.00     39.33           RANKING
  20      2     99       -3.57      1.87     40.21           RANKING
  21      1     40       -5.57      0.00     29.41           RANKING
  22      1     56       -5.52      0.00     36.34           RANKING
  23      1     46       -5.42      0.00     37.49           RANKING
  23      2     71       -5.12      1.96     39.48           RANKING
  23      3     43       -4.55      1.82     39.25           RANKING
  23      4     69       -3.81      1.98     37.99           RANKING
  24      1     20       -5.40      0.00     22.29           RANKING
  25      1     74       -5.33      0.00     31.86           RANKING
  26      1     66       -5.30      0.00     43.66           RANKING
  27      1     92       -5.28      0.00     53.60           RANKING
  28      1     32       -5.23      0.00     41.84           RANKING
  28      2      7       -5.22      0.87     41.34           RANKING
  29      1    100       -5.23      0.00     29.27           RANKING
  30      1     62       -5.22      0.00     41.91           RANKING
  31      1     13       -5.19      0.00     36.71           RANKING
  32      1     47       -5.17      0.00     38.08           RANKING
  33      1      2       -5.13      0.00     56.72           RANKING
  34      1     38       -5.12      0.00     50.51           RANKING
  35      1     55       -5.07      0.00     55.23           RANKING
  36      1     70       -5.03      0.00     22.06           RANKING
  37      1     90       -4.94      0.00     43.89           RANKING
  38      1     39       -4.91      0.00     24.73           RANKING
  39      1     25       -4.90      0.00     20.93           RANKING
  39      2     80       -4.37      1.26     20.83           RANKING
  40      1     88       -4.84      0.00     40.38           RANKING
  41      1     60       -4.83      0.00     39.31           RANKING
  42      1     34       -4.75      0.00     45.32           RANKING
  43      1     76       -4.69      0.00     18.09           RANKING
  43      2     91       -4.59      0.76     18.37           RANKING
  44      1     95       -4.60      0.00     46.12           RANKING
  45      1      4       -4.56      0.00     27.41           RANKING
  46      1     29       -4.55      0.00     34.27           RANKING
  46      2     87       -4.30      1.49     33.91           RANKING
  46      3     17       -4.28      1.59     34.40           RANKING
  47      1     75       -4.46      0.00     33.84           RANKING
  48      1     77       -4.31      0.00     34.11           RANKING
  49      1     98       -4.29      0.00     21.92           RANKING
  50      1     49       -4.18      0.00     38.51           RANKING
  51      1      6       -4.11      0.00     30.76           RANKING
  52      1     41       -4.08      0.00     31.41           RANKING
  53      1     45       -4.01      0.00     37.57           RANKING
  54      1     36       -4.00      0.00     18.63           RANKING
  55      1     68       -3.94      0.00     47.05           RANKING
  56      1     42       -3.93      0.00     24.94           RANKING
  57      1     52       -3.77      0.00     19.81           RANKING
  58      1     54       -3.69      0.00     49.18           RANKING
  59      1      5       -3.44      0.00     21.53           RANKING
  60      1     21       -3.29      0.00     30.72           RANKING
_______________________________________________________________________



	INFORMATION ENTROPY ANALYSIS FOR THIS CLUSTERING
	________________________________________________


Information entropy for this clustering = 0.83  (rmstol = 2.00 Angstrom)

_______________________________________________________________________


	STATISTICAL MECHANICAL ANALYSIS
	_______________________________


Partition function, Q =   100.92            at Temperature, T = 298.15 K
Free energy,        A ~ -2733.92 kcal/mol   at Temperature, T = 298.15 K
Internal energy,    U =    -5.44 kcal/mol   at Temperature, T = 298.15 K
Entropy,            S =     9.15 kcal/mol/K at Temperature, T = 298.15 K

_______________________________________________________________________


	LOWEST ENERGY DOCKED CONFORMATION from EACH CLUSTER
	___________________________________________________



Keeping original residue number (specified in the input PDBQ file) for outputting.

MODEL       85
USER    Run = 85
USER    Cluster Rank = 1
USER    Number of conformations in this cluster = 7
USER  
USER    RMSD from reference structure       = 21.381 A
USER  
USER    Estimated Free Energy of Binding    =   -8.01 kcal/mol  [=(1)+(2)+(3)-(4)]
USER    Estimated Inhibition Constant, Ki   =    1.34 uM (micromolar)  [Temperature = 298.15 K]
USER    
USER    (1) Final Intermolecular Energy     =  -10.99 kcal/mol
USER        vdW + Hbond + desolv Energy     =   -8.13 kcal/mol
USER        Electrostatic Energy            =   -2.87 kcal/mol
USER    (2) Final Total Internal Energy     =   -0.61 kcal/mol
USER    (3) Torsional Free Energy           =   +2.98 kcal/mol
USER    (4) Unbound System's Energy  [=(2)] =   -0.61 kcal/mol
USER    
USER    
USER  
USER    DPF = D:/Protein_go_brrr/autodock/final/mut_Y35F/heme_O2/dock.dpf
USER    NEWDPF move	heme_O2_opt.pdbqt
USER    NEWDPF about	8.287000 34.468000 -0.670000
USER    NEWDPF tran0	13.964294 11.755602 4.523549
USER    NEWDPF axisangle0	-0.750481 -0.564269 0.344063 -168.356966
USER    NEWDPF quaternion0	-0.746611 -0.561358 0.342288 -0.101430
USER    NEWDPF dihe0	30.29 -52.88 54.05 -101.10 -171.70 180.00 -53.01 91.34 22.23 -151.84 
USER  
USER                              x       y       z    vdW   Elec        q     RMS 
ATOM      1  C   UNL d   1      14.674  10.034   5.540 -0.08 +0.01    +0.064    21.381
ATOM      2  C   UNL d   1      10.420  11.190   3.772 -0.23 -0.01    +0.064    21.381
ATOM      3  C   UNL d   1      12.079  15.461   2.323 -0.18 -0.02    +0.064    21.381
ATOM      4  C   UNL d   1      16.581  14.091   3.711 -0.09 -0.00    +0.064    21.381
ATOM      5  C   UNL d   1      13.382   9.999   5.176 -0.12 +0.01    +0.066    21.381
ATOM      6  C   UNL d   1      12.523   8.928   5.438 -0.14 -0.00    -0.021    21.381
ATOM      7  C   UNL d   1      11.303   9.243   4.888 -0.22 -0.00    -0.025    21.381
ATOM      8  C   UNL d   1      11.436  10.519   4.348 -0.22 -0.00    +0.066    21.381
ATOM      9  C   UNL d   1      10.098   8.328   4.873 -0.31 +0.01    +0.051    21.381
ATOM     10  C   UNL d   1      10.493  12.539   3.209 -0.21 -0.01    +0.066    21.381
ATOM     11  C   UNL d   1       9.371  13.252   2.771 -0.44 +0.00    -0.021    21.381
ATOM     12  C   UNL d   1       9.827  14.493   2.366 -0.42 -0.00    +0.000    21.381
ATOM     13  C   UNL d   1      11.234  14.461   2.573 -0.24 -0.02    +0.070    21.381
ATOM     14  C   UNL d   1       7.922  12.779   2.766 -0.28 -0.00    +0.052    21.381
ATOM     15  C   UNL d   1      13.513  15.457   2.485 -0.11 -0.02    +0.066    21.381
ATOM     16  C   UNL d   1      14.361  16.476   2.052 -0.11 +0.01    -0.021    21.381
ATOM     17  C   UNL d   1      15.650  16.107   2.436 -0.10 -0.00    +0.000    21.381
ATOM     18  C   UNL d   1      15.490  14.875   3.085 -0.09 -0.01    +0.070    21.381
ATOM     19  C   UNL d   1      13.877  17.671   1.269 -0.10 -0.04    +0.052    21.381
ATOM     20  C   UNL d   1      16.469  12.887   4.304 +0.01 +0.01    +0.066    21.381
ATOM     21  C   UNL d   1      17.530  12.205   4.892 +0.07 -0.01    -0.025    21.381
ATOM     22  C   UNL d   1      17.000  11.059   5.442 -0.03 -0.01    -0.021    21.381
ATOM     23  C   UNL d   1      15.633  11.076   5.153 -0.04 +0.02    +0.066    21.381
ATOM     24  C   UNL d   1      18.977  12.623   4.925 -0.06 +0.01    +0.051    21.381
ATOM     25  N   UNL d   1      12.734  10.957   4.468 -0.09 -0.00    -0.248    21.381
ATOM     26  N   UNL d   1      11.631  13.267   3.081 -0.14 +0.05    -0.248    21.381
ATOM     27  N   UNL d   1      14.198  14.460   3.040 -0.06 +0.04    -0.248    21.381
ATOM     28  N   UNL d   1      15.322  12.166   4.422 -0.07 -0.04    -0.248    21.381
ATOM     29 FE   UNL d   1      13.491  12.715   3.755 -0.04 -0.00    +0.000    21.381
ATOM     30  O   UNL d   1      13.111  11.697   2.641 -0.41 -0.00    +0.000    21.381
ATOM     31  O   UNL d   1      14.423  12.557   2.498 -0.45 -0.00    +0.000    21.381
ATOM     32  C   UNL d   1      12.869   7.599   6.058 -0.15 +0.01    +0.052    21.381
ATOM     33  C   UNL d   1      12.371   7.468   7.494 -0.09 +0.05    +0.115    21.381
ATOM     34  C   UNL d   1      11.502   6.251   7.694 -0.11 +0.15    +0.139    21.381
ATOM     35  O   UNL d   1      11.773   5.214   7.109 -0.34 -0.76    -0.650    21.381
ATOM     36  O   UNL d   1      10.409   6.289   8.484 -0.20 -1.31    -0.776    21.381
ATOM     37  H   UNL d   1       9.890   7.093   8.601 +0.04 +0.16    +0.167    21.381
ATOM     38  C   UNL d   1      17.781   9.982   6.149 -0.07 +0.01    +0.052    21.381
ATOM     39  C   UNL d   1      18.993   9.518   5.344 -0.10 +0.04    +0.115    21.381
ATOM     40  C   UNL d   1      18.667   8.373   4.419 -0.21 +0.09    +0.139    21.381
ATOM     41  O   UNL d   1      17.859   7.526   4.764 -0.03 -0.32    -0.650    21.381
ATOM     42  O   UNL d   1      19.214   8.293   3.190 -0.50 -1.13    -0.776    21.381
ATOM     43  H   UNL d   1      19.198   9.041   2.581 -0.40 +0.17    +0.167    21.381
ATOM     44  C   UNL d   1       8.892  15.557   1.832 -0.40 -0.00    +0.004    21.381
ATOM     45  C   UNL d   1       9.019  16.273   0.715 -0.39 -0.00    +0.012    21.381
ATOM     46  C   UNL d   1      16.980  16.770   2.197 -0.08 -0.00    +0.004    21.381
ATOM     47  C   UNL d   1      17.964  16.382   1.375 -0.11 -0.00    +0.012    21.381
TER
ENDMDL
MODEL       22
USER    Run = 22
USER    Cluster Rank = 2
USER    Number of conformations in this cluster = 8
USER  
USER    RMSD from reference structure       = 21.807 A
USER  
USER    Estimated Free Energy of Binding    =   -7.75 kcal/mol  [=(1)+(2)+(3)-(4)]
USER    Estimated Inhibition Constant, Ki   =    2.07 uM (micromolar)  [Temperature = 298.15 K]
USER    
USER    (1) Final Intermolecular Energy     =  -10.74 kcal/mol
USER        vdW + Hbond + desolv Energy     =   -7.55 kcal/mol
USER        Electrostatic Energy            =   -3.18 kcal/mol
USER    (2) Final Total Internal Energy     =   -1.34 kcal/mol
USER    (3) Torsional Free Energy           =   +2.98 kcal/mol
USER    (4) Unbound System's Energy  [=(2)] =   -1.34 kcal/mol
USER    
USER    
USER  
USER    DPF = D:/Protein_go_brrr/autodock/final/mut_Y35F/heme_O2/dock.dpf
USER    NEWDPF move	heme_O2_opt.pdbqt
USER    NEWDPF about	8.287000 34.468000 -0.670000
USER    NEWDPF tran0	11.136490 11.349673 7.059176
USER    NEWDPF axisangle0	0.667807 0.640707 0.378850 -165.249646
USER    NEWDPF quaternion0	0.662282 0.635407 0.375716 -0.128366
USER    NEWDPF dihe0	0.72 28.33 -75.30 -124.82 -110.56 -17.14 -37.78 -44.60 -127.39 -36.24 
USER  
USER                              x       y       z    vdW   Elec        q     RMS 
ATOM      1  C   UNL d   1      11.224   9.253   7.371 -0.12 +0.02    +0.064    21.807
ATOM      2  C   UNL d   1      11.536  11.930   3.460 -0.08 -0.01    +0.064    21.807
ATOM      3  C   UNL d   1      10.905  15.936   6.040 -0.21 -0.01    +0.064    21.807
ATOM      4  C   UNL d   1      11.061  13.229  10.129 -0.21 +0.02    +0.064    21.807
ATOM      5  C   UNL d   1      11.363   9.655   6.097 -0.13 +0.01    +0.066    21.807
ATOM      6  C   UNL d   1      11.543   8.785   5.018 -0.21 -0.00    -0.021    21.807
ATOM      7  C   UNL d   1      11.677   9.562   3.890 -0.29 +0.00    -0.025    21.807
ATOM      8  C   UNL d   1      11.526  10.882   4.306 -0.21 -0.00    +0.066    21.807
ATOM      9  C   UNL d   1      11.965   9.031   2.503 -0.40 -0.01    +0.051    21.807
ATOM     10  C   UNL d   1      11.361  13.335   3.834 -0.20 -0.01    +0.066    21.807
ATOM     11  C   UNL d   1      11.216  14.367   2.900 -0.25 +0.00    -0.021    21.807
ATOM     12  C   UNL d   1      11.015  15.527   3.624 -0.19 -0.00    +0.000    21.807
ATOM     13  C   UNL d   1      11.062  15.130   4.990 -0.16 -0.01    +0.070    21.807
ATOM     14  C   UNL d   1      11.241  14.247   1.381 -0.33 -0.02    +0.052    21.807
ATOM     15  C   UNL d   1      10.980  15.579   7.436 -0.19 -0.01    +0.066    21.807
ATOM     16  C   UNL d   1      10.972  16.496   8.488 -0.19 +0.00    -0.021    21.807
ATOM     17  C   UNL d   1      11.016  15.747   9.664 -0.22 +0.00    +0.000    21.807
ATOM     18  C   UNL d   1      11.047  14.412   9.236 -0.23 +0.01    +0.070    21.807
ATOM     19  C   UNL d   1      10.978  17.989   8.277 -0.15 -0.01    +0.052    21.807
ATOM     20  C   UNL d   1      11.134  11.938   9.752 -0.18 +0.02    +0.066    21.807
ATOM     21  C   UNL d   1      11.125  10.865  10.639 -0.14 -0.01    -0.025    21.807
ATOM     22  C   UNL d   1      11.144   9.723   9.870 -0.14 -0.01    -0.021    21.807
ATOM     23  C   UNL d   1      11.182  10.144   8.537 -0.14 +0.02    +0.066    21.807
ATOM     24  C   UNL d   1      11.104  10.926  12.145 -0.14 +0.02    +0.051    21.807
ATOM     25  N   UNL d   1      11.398  10.942   5.674 -0.05 -0.01    -0.248    21.807
ATOM     26  N   UNL d   1      11.277  13.796   5.108 +0.02 +0.02    -0.248    21.807
ATOM     27  N   UNL d   1      11.101  14.332   7.882 -0.04 -0.01    -0.248    21.807
ATOM     28  N   UNL d   1      11.221  11.490   8.472 -0.10 -0.04    -0.248    21.807
ATOM     29 FE   UNL d   1      11.249  12.637   6.804 -0.04 +0.00    +0.000    21.807
ATOM     30  O   UNL d   1      12.651  12.433   6.159 -0.11 +0.00    +0.000    21.807
ATOM     31  O   UNL d   1      12.541  12.979   7.633 -0.11 +0.00    +0.000    21.807
ATOM     32  C   UNL d   1      11.721   7.290   5.057 -0.15 +0.01    +0.052    21.807
ATOM     33  C   UNL d   1      12.673   6.835   6.159 -0.16 +0.04    +0.115    21.807
ATOM     34  C   UNL d   1      12.198   5.580   6.848 -0.14 +0.12    +0.139    21.807
ATOM     35  O   UNL d   1      12.663   4.500   6.521 -0.48 -0.54    -0.650    21.807
ATOM     36  O   UNL d   1      11.247   5.619   7.804 -0.35 -1.36    -0.776    21.807
ATOM     37  H   UNL d   1      10.826   6.444   8.072 +0.03 +0.21    +0.167    21.807
ATOM     38  C   UNL d   1      11.188   8.311  10.395 -0.11 +0.03    +0.052    21.807
ATOM     39  C   UNL d   1       9.920   7.934  11.157 -0.11 +0.07    +0.115    21.807
ATOM     40  C   UNL d   1       9.393   6.576  10.763 +0.13 +0.17    +0.139    21.807
ATOM     41  O   UNL d   1       9.163   5.742  11.623 -0.44 -0.92    -0.650    21.807
ATOM     42  O   UNL d   1       9.121   6.283   9.476 +0.05 -1.20    -0.776    21.807
ATOM     43  H   UNL d   1       9.619   6.680   8.752 +0.04 +0.21    +0.167    21.807
ATOM     44  C   UNL d   1      10.807  16.869   2.953 -0.16 -0.00    +0.004    21.807
ATOM     45  C   UNL d   1       9.658  17.509   2.742 -0.22 -0.00    +0.012    21.807
ATOM     46  C   UNL d   1      11.088  16.174  11.105 -0.18 +0.00    +0.004    21.807
ATOM     47  C   UNL d   1      11.916  15.732  12.060 -0.14 +0.01    +0.012    21.807
TER
ENDMDL
MODEL       73
USER    Run = 73
USER    Cluster Rank = 3
USER    Number of conformations in this cluster = 1
USER  
USER    RMSD from reference structure       = 22.989 A
USER  
USER    Estimated Free Energy of Binding    =   -7.19 kcal/mol  [=(1)+(2)+(3)-(4)]
USER    Estimated Inhibition Constant, Ki   =    5.36 uM (micromolar)  [Temperature = 298.15 K]
USER    
USER    (1) Final Intermolecular Energy     =  -10.17 kcal/mol
USER        vdW + Hbond + desolv Energy     =   -7.83 kcal/mol
USER        Electrostatic Energy            =   -2.35 kcal/mol
USER    (2) Final Total Internal Energy     =   -0.44 kcal/mol
USER    (3) Torsional Free Energy           =   +2.98 kcal/mol
USER    (4) Unbound System's Energy  [=(2)] =   -0.44 kcal/mol
USER    
USER    
USER  
USER    DPF = D:/Protein_go_brrr/autodock/final/mut_Y35F/heme_O2/dock.dpf
USER    NEWDPF move	heme_O2_opt.pdbqt
USER    NEWDPF about	8.287000 34.468000 -0.670000
USER    NEWDPF tran0	12.013900 10.103514 5.233024
USER    NEWDPF axisangle0	0.945137 0.319130 -0.069804 163.738881
USER    NEWDPF quaternion0	0.935636 0.315923 -0.069103 0.141429
USER    NEWDPF dihe0	-79.35 112.52 104.39 -102.38 59.07 -170.81 63.33 3.80 -11.26 180.00 
USER  
USER                              x       y       z    vdW   Elec        q     RMS 
ATOM      1  C   UNL d   1      11.054   8.327   5.882 -0.17 +0.01    +0.064    22.989
ATOM      2  C   UNL d   1       9.614  11.937   3.153 -0.29 -0.01    +0.064    22.989
ATOM      3  C   UNL d   1      13.841  14.157   3.698 -0.10 -0.01    +0.064    22.989
ATOM      4  C   UNL d   1      15.502  10.224   6.114 -0.06 +0.01    +0.064    22.989
ATOM      5  C   UNL d   1      10.318   9.127   5.094 -0.22 +0.01    +0.066    22.989
ATOM      6  C   UNL d   1       9.002   8.853   4.711 -0.21 -0.00    -0.021    22.989
ATOM      7  C   UNL d   1       8.599   9.876   3.886 -0.17 -0.00    -0.025    22.989
ATOM      8  C   UNL d   1       9.663  10.772   3.826 -0.30 -0.00    +0.066    22.989
ATOM      9  C   UNL d   1       7.261   9.944   3.181 -0.48 +0.00    +0.051    22.989
ATOM     10  C   UNL d   1      10.689  12.927   3.073 -0.22 -0.01    +0.066    22.989
ATOM     11  C   UNL d   1      10.529  14.193   2.498 -0.35 +0.00    -0.021    22.989
ATOM     12  C   UNL d   1      11.732  14.854   2.661 -0.21 -0.00    +0.000    22.989
ATOM     13  C   UNL d   1      12.581  13.930   3.330 -0.14 -0.01    +0.070    22.989
ATOM     14  C   UNL d   1       9.272  14.757   1.845 -0.44 -0.01    +0.052    22.989
ATOM     15  C   UNL d   1      14.745  13.236   4.345 -0.09 +0.00    +0.066    22.989
ATOM     16  C   UNL d   1      16.102  13.476   4.556 -0.08 -0.00    -0.021    22.989
ATOM     17  C   UNL d   1      16.597  12.368   5.243 -0.08 +0.00    +0.000    22.989
ATOM     18  C   UNL d   1      15.489  11.524   5.403 -0.07 +0.01    +0.070    22.989
ATOM     19  C   UNL d   1      16.810  14.704   4.040 -0.06 -0.00    +0.052    22.989
ATOM     20  C   UNL d   1      14.469   9.370   6.249 -0.06 +0.01    +0.066    22.989
ATOM     21  C   UNL d   1      14.537   8.167   6.946 -0.03 -0.01    -0.025    22.989
ATOM     22  C   UNL d   1      13.272   7.625   6.914 -0.07 -0.01    -0.021    22.989
ATOM     23  C   UNL d   1      12.479   8.514   6.180 -0.09 +0.02    +0.066    22.989
ATOM     24  C   UNL d   1      15.749   7.562   7.606 -0.01 +0.01    +0.051    22.989
ATOM     25  N   UNL d   1      10.745  10.277   4.517 -0.15 +0.00    -0.248    22.989
ATOM     26  N   UNL d   1      11.940  12.758   3.573 -0.12 +0.04    -0.248    22.989
ATOM     27  N   UNL d   1      14.391  12.032   4.787 -0.07 -0.02    -0.248    22.989
ATOM     28  N   UNL d   1      13.222   9.550   5.740 -0.04 -0.04    -0.248    22.989
ATOM     29 FE   UNL d   1      12.588  11.143   4.664 -0.04 +0.00    +0.000    22.989
ATOM     30  O   UNL d   1      12.259  10.604   3.242 -0.36 -0.00    +0.000    22.989
ATOM     31  O   UNL d   1      13.710  10.425   3.828 -0.30 +0.00    +0.000    22.989
ATOM     32  C   UNL d   1       8.198   7.611   4.996 -0.28 +0.01    +0.052    22.989
ATOM     33  C   UNL d   1       7.758   7.511   6.453 -0.30 +0.03    +0.115    22.989
ATOM     34  C   UNL d   1       8.311   6.285   7.138 -0.28 +0.09    +0.139    22.989
ATOM     35  O   UNL d   1       7.660   5.253   7.145 -0.05 -0.42    -0.650    22.989
ATOM     36  O   UNL d   1       9.502   6.311   7.771 -0.32 -0.90    -0.776    22.989
ATOM     37  H   UNL d   1      10.337   6.254   7.291 +0.04 +0.18    +0.167    22.989
ATOM     38  C   UNL d   1      12.869   6.298   7.502 -0.13 +0.03    +0.052    22.989
ATOM     39  C   UNL d   1      13.287   5.121   6.623 -0.19 +0.07    +0.115    22.989
ATOM     40  C   UNL d   1      12.829   3.796   7.177 -0.21 +0.13    +0.139    22.989
ATOM     41  O   UNL d   1      12.644   3.672   8.377 -0.19 -1.08    -0.650    22.989
ATOM     42  O   UNL d   1      12.570   2.753   6.364 -0.37 -0.56    -0.776    22.989
ATOM     43  H   UNL d   1      13.096   1.946   6.396 +0.07 +0.08    +0.167    22.989
ATOM     44  C   UNL d   1      11.943  16.271   2.169 -0.16 -0.00    +0.004    22.989
ATOM     45  C   UNL d   1      12.211  16.674   0.927 -0.23 -0.01    +0.012    22.989
ATOM     46  C   UNL d   1      17.993  12.026   5.692 -0.06 +0.00    +0.004    22.989
ATOM     47  C   UNL d   1      18.811  11.083   5.209 -0.08 +0.00    +0.012    22.989
TER
ENDMDL
MODEL       16
USER    Run = 16
USER    Cluster Rank = 4
USER    Number of conformations in this cluster = 1
USER  
USER    RMSD from reference structure       = 26.246 A
USER  
USER    Estimated Free Energy of Binding    =   -6.66 kcal/mol  [=(1)+(2)+(3)-(4)]
USER    Estimated Inhibition Constant, Ki   =   13.12 uM (micromolar)  [Temperature = 298.15 K]
USER    
USER    (1) Final Intermolecular Energy     =   -9.64 kcal/mol
USER        vdW + Hbond + desolv Energy     =   -6.12 kcal/mol
USER        Electrostatic Energy            =   -3.52 kcal/mol
USER    (2) Final Total Internal Energy     =   -0.74 kcal/mol
USER    (3) Torsional Free Energy           =   +2.98 kcal/mol
USER    (4) Unbound System's Energy  [=(2)] =   -0.74 kcal/mol
USER    
USER    
USER  
USER    DPF = D:/Protein_go_brrr/autodock/final/mut_Y35F/heme_O2/dock.dpf
USER    NEWDPF move	heme_O2_opt.pdbqt
USER    NEWDPF about	8.287000 34.468000 -0.670000
USER    NEWDPF tran0	12.159959 6.979297 9.403394
USER    NEWDPF axisangle0	-0.405305 -0.914014 0.017491 99.069043
USER    NEWDPF quaternion0	-0.308355 -0.695379 0.013307 0.648990
USER    NEWDPF dihe0	33.43 3.80 102.34 48.86 41.30 -150.85 -147.99 -62.64 -19.22 -168.72 
USER  
USER                              x       y       z    vdW   Elec        q     RMS 
ATOM      1  C   UNL d   1      11.652   7.032  11.462 -0.06 +0.04    +0.064    26.246
ATOM      2  C   UNL d   1      13.789   3.756   8.768 -0.09 +0.05    +0.064    26.246
ATOM      3  C   UNL d   1      13.340   6.534   4.872 -0.25 +0.02    +0.064    26.246
ATOM      4  C   UNL d   1      11.571  10.110   7.726 -0.11 +0.01    +0.064    26.246
ATOM      5  C   UNL d   1      12.272   5.915  11.048 -0.01 +0.07    +0.066    26.246
ATOM      6  C   UNL d   1      12.571   4.832  11.879 -0.06 -0.02    -0.021    26.246
ATOM      7  C   UNL d   1      13.229   3.901  11.109 -0.06 -0.02    -0.025    26.246
ATOM      8  C   UNL d   1      13.270   4.420   9.818 +0.03 +0.08    +0.066    26.246
ATOM      9  C   UNL d   1      13.803   2.600  11.627 -0.05 +0.03    +0.051    26.246
ATOM     10  C   UNL d   1      13.840   4.239   7.388 -0.14 +0.04    +0.066    26.246
ATOM     11  C   UNL d   1      14.241   3.444   6.308 -0.21 -0.01    -0.021    26.246
ATOM     12  C   UNL d   1      14.101   4.222   5.173 -0.31 +0.00    +0.000    26.246
ATOM     13  C   UNL d   1      13.624   5.479   5.637 -0.19 +0.03    +0.070    26.246
ATOM     14  C   UNL d   1      14.711   1.995   6.354 -0.24 +0.02    +0.052    26.246
ATOM     15  C   UNL d   1      12.889   7.834   5.305 -0.17 +0.01    +0.066    26.246
ATOM     16  C   UNL d   1      12.767   8.946   4.473 -0.23 -0.00    -0.021    26.246
ATOM     17  C   UNL d   1      12.265   9.979   5.265 -0.15 +0.00    +0.000    26.246
ATOM     18  C   UNL d   1      12.115   9.411   6.538 -0.09 +0.01    +0.070    26.246
ATOM     19  C   UNL d   1      13.188   8.940   3.025 -0.36 +0.00    +0.052    26.246
ATOM     20  C   UNL d   1      11.453   9.609   8.971 -0.11 +0.02    +0.066    26.246
ATOM     21  C   UNL d   1      10.917  10.310  10.047 -0.16 -0.01    -0.025    26.246
ATOM     22  C   UNL d   1      10.907   9.439  11.114 -0.12 -0.01    -0.021    26.246
ATOM     23  C   UNL d   1      11.457   8.240  10.652 -0.07 +0.03    +0.066    26.246
ATOM     24  C   UNL d   1      10.441  11.739  10.058 -0.14 +0.02    +0.051    26.246
ATOM     25  N   UNL d   1      12.738   5.689   9.795 -0.05 -0.29    -0.248    26.246
ATOM     26  N   UNL d   1      13.473   5.483   6.985 -0.08 -0.14    -0.248    26.246
ATOM     27  N   UNL d   1      12.569   8.131   6.561 -0.04 -0.07    -0.248    26.246
ATOM     28  N   UNL d   1      11.829   8.362   9.361 -0.03 -0.11    -0.248    26.246
ATOM     29 FE   UNL d   1      12.645   6.935   8.180 -0.02 +0.00    +0.000    26.246
ATOM     30  O   UNL d   1      14.089   6.703   8.712 -0.03 +0.00    +0.000    26.246
ATOM     31  O   UNL d   1      13.655   8.139   8.231 -0.04 +0.00    +0.000    26.246
ATOM     32  C   UNL d   1      12.373   4.729  13.369 -0.03 +0.03    +0.052    26.246
ATOM     33  C   UNL d   1      10.903   4.775  13.775 -0.04 +0.06    +0.115    26.246
ATOM     34  C   UNL d   1       9.994   4.207  12.713 +0.06 +0.15    +0.139    26.246
ATOM     35  O   UNL d   1       9.263   4.954  12.083 -0.49 -0.99    -0.650    26.246
ATOM     36  O   UNL d   1       9.950   2.883  12.459 -0.02 -0.80    -0.776    26.246
ATOM     37  H   UNL d   1      10.070   2.226  13.155 +0.01 +0.09    +0.167    26.246
ATOM     38  C   UNL d   1      10.453   9.769  12.512 -0.13 +0.02    +0.052    26.246
ATOM     39  C   UNL d   1      11.367  10.782  13.197 -0.09 +0.06    +0.115    26.246
ATOM     40  C   UNL d   1      10.660  12.076  13.513 -0.05 +0.16    +0.139    26.246
ATOM     41  O   UNL d   1       9.520  12.256  13.116 -0.09 -1.03    -0.650    26.246
ATOM     42  O   UNL d   1      11.246  13.022  14.271 -0.24 -1.23    -0.776    26.246
ATOM     43  H   UNL d   1      12.164  12.943  14.557 +0.01 +0.14    +0.167    26.246
ATOM     44  C   UNL d   1      14.434   3.696   3.793 -0.47 +0.00    +0.004    26.246
ATOM     45  C   UNL d   1      15.631   3.618   3.213 -0.43 +0.00    +0.012    26.246
ATOM     46  C   UNL d   1      11.981  11.422   4.944 -0.19 +0.00    +0.004    26.246
ATOM     47  C   UNL d   1      11.410  11.929   3.844 -0.28 -0.00    +0.012    26.246
TER
ENDMDL
MODEL       18
USER    Run = 18
USER    Cluster Rank = 5
USER    Number of conformations in this cluster = 2
USER  
USER    RMSD from reference structure       = 33.136 A
USER  
USER    Estimated Free Energy of Binding    =   -6.50 kcal/mol  [=(1)+(2)+(3)-(4)]
USER    Estimated Inhibition Constant, Ki   =   17.25 uM (micromolar)  [Temperature = 298.15 K]
USER    
USER    (1) Final Intermolecular Energy     =   -9.48 kcal/mol
USER        vdW + Hbond + desolv Energy     =   -6.62 kcal/mol
USER        Electrostatic Energy            =   -2.86 kcal/mol
USER    (2) Final Total Internal Energy     =   -1.86 kcal/mol
USER    (3) Torsional Free Energy           =   +2.98 kcal/mol
USER    (4) Unbound System's Energy  [=(2)] =   -1.86 kcal/mol
USER    
USER    
USER  
USER    DPF = D:/Protein_go_brrr/autodock/final/mut_Y35F/heme_O2/dock.dpf
USER    NEWDPF move	heme_O2_opt.pdbqt
USER    NEWDPF about	8.287000 34.468000 -0.670000
USER    NEWDPF tran0	15.555706 -0.278422 5.711371
USER    NEWDPF axisangle0	0.702111 0.654813 -0.279750 -48.075181
USER    NEWDPF quaternion0	0.285995 0.266729 -0.113952 -0.913278
USER    NEWDPF dihe0	-177.71 -36.29 -41.84 36.34 118.07 179.40 -84.63 35.97 -176.51 165.93 
USER  
USER                              x       y       z    vdW   Elec        q     RMS 
ATOM      1  C   UNL d   1      13.880   0.780   6.467 -0.29 +0.02    +0.064    33.136
ATOM      2  C   UNL d   1      15.438  -3.657   7.132 -0.12 +0.02    +0.064    33.136
ATOM      3  C   UNL d   1      19.129  -2.907   4.147 -0.12 +0.01    +0.064    33.136
ATOM      4  C   UNL d   1      17.806   1.806   3.827 -0.28 +0.02    +0.064    33.136
ATOM      5  C   UNL d   1      14.004  -0.488   6.893 -0.22 +0.01    +0.066    33.136
ATOM      6  C   UNL d   1      13.107  -1.111   7.765 -0.26 -0.01    -0.021    33.136
ATOM      7  C   UNL d   1      13.581  -2.382   7.993 -0.20 -0.01    -0.025    33.136
ATOM      8  C   UNL d   1      14.728  -2.516   7.215 -0.16 +0.01    +0.066    33.136
ATOM      9  C   UNL d   1      12.955  -3.382   8.940 -0.16 +0.01    +0.051    33.136
ATOM     10  C   UNL d   1      16.635  -3.865   6.316 -0.08 +0.01    +0.066    33.136
ATOM     11  C   UNL d   1      17.239  -5.115   6.140 -0.05 -0.00    -0.021    33.136
ATOM     12  C   UNL d   1      18.294  -4.923   5.268 -0.04 +0.00    +0.000    33.136
ATOM     13  C   UNL d   1      18.282  -3.533   4.964 -0.07 +0.01    +0.070    33.136
ATOM     14  C   UNL d   1      16.810  -6.442   6.755 -0.07 +0.02    +0.052    33.136
ATOM     15  C   UNL d   1      19.171  -1.498   3.842 -0.16 +0.01    +0.066    33.136
ATOM     16  C   UNL d   1      20.183  -0.878   3.108 -0.20 -0.00    -0.021    33.136
ATOM     17  C   UNL d   1      19.827   0.467   3.004 -0.29 +0.00    +0.000    33.136
ATOM     18  C   UNL d   1      18.609   0.568   3.690 -0.26 +0.02    +0.070    33.136
ATOM     19  C   UNL d   1      21.412  -1.606   2.623 -0.14 +0.01    +0.052    33.136
ATOM     20  C   UNL d   1      16.656   1.947   4.514 -0.25 +0.02    +0.066    33.136
ATOM     21  C   UNL d   1      15.935   3.136   4.592 -0.33 -0.01    -0.025    33.136
ATOM     22  C   UNL d   1      14.799   2.855   5.318 -0.31 -0.01    -0.021    33.136
ATOM     23  C   UNL d   1      14.878   1.505   5.672 -0.22 +0.02    +0.066    33.136
ATOM     24  C   UNL d   1      16.313   4.472   4.007 -0.37 +0.02    +0.051    33.136
ATOM     25  N   UNL d   1      15.023  -1.327   6.589 -0.10 -0.05    -0.248    33.136
ATOM     26  N   UNL d   1      17.272  -2.896   5.610 -0.05 -0.04    -0.248    33.136
ATOM     27  N   UNL d   1      18.264  -0.618   4.255 +0.00 -0.04    -0.248    33.136
ATOM     28  N   UNL d   1      16.030   0.969   5.220 +0.08 -0.06    -0.248    33.136
ATOM     29 FE   UNL d   1      16.649  -0.949   5.412 -0.04 +0.00    +0.000    33.136
ATOM     30  O   UNL d   1      16.995  -1.145   6.917 -0.10 +0.00    +0.000    33.136
ATOM     31  O   UNL d   1      17.736  -0.033   6.085 -0.11 +0.00    +0.000    33.136
ATOM     32  C   UNL d   1      11.925  -0.496   8.469 +0.14 +0.02    +0.052    33.136
ATOM     33  C   UNL d   1      12.271   0.031   9.858 -0.10 +0.06    +0.115    33.136
ATOM     34  C   UNL d   1      12.647   1.492   9.842 -0.03 +0.13    +0.139    33.136
ATOM     35  O   UNL d   1      13.222   1.956   8.871 -0.10 -0.53    -0.650    33.136
ATOM     36  O   UNL d   1      12.387   2.297  10.893 -0.20 -0.95    -0.776    33.136
ATOM     37  H   UNL d   1      12.590   3.239  10.878 +0.00 +0.26    +0.167    33.136
ATOM     38  C   UNL d   1      13.733   3.849   5.700 -0.22 +0.03    +0.052    33.136
ATOM     39  C   UNL d   1      13.991   4.482   7.066 -0.14 +0.06    +0.115    33.136
ATOM     40  C   UNL d   1      12.716   4.761   7.822 -0.13 +0.16    +0.139    33.136
ATOM     41  O   UNL d   1      11.719   5.121   7.217 -0.35 -0.85    -0.650    33.136
ATOM     42  O   UNL d   1      12.641   4.571   9.153 -0.05 -1.50    -0.776    33.136
ATOM     43  H   UNL d   1      13.132   3.865   9.591 +0.01 +0.25    +0.167    33.136
ATOM     44  C   UNL d   1      19.189  -6.061   4.825 -0.01 +0.00    +0.004    33.136
ATOM     45  C   UNL d   1      19.598  -6.349   3.590 -0.02 +0.00    +0.012    33.136
ATOM     46  C   UNL d   1      20.547   1.634   2.383 -0.20 +0.00    +0.004    33.136
ATOM     47  C   UNL d   1      21.397   1.628   1.348 -0.27 +0.00    +0.012    33.136
TER
ENDMDL
MODEL       81
USER    Run = 81
USER    Cluster Rank = 6
USER    Number of conformations in this cluster = 1
USER  
USER    RMSD from reference structure       = 49.237 A
USER  
USER    Estimated Free Energy of Binding    =   -6.48 kcal/mol  [=(1)+(2)+(3)-(4)]
USER    Estimated Inhibition Constant, Ki   =   17.74 uM (micromolar)  [Temperature = 298.15 K]
USER    
USER    (1) Final Intermolecular Energy     =   -9.46 kcal/mol
USER        vdW + Hbond + desolv Energy     =   -8.16 kcal/mol
USER        Electrostatic Energy            =   -1.31 kcal/mol
USER    (2) Final Total Internal Energy     =   -0.39 kcal/mol
USER    (3) Torsional Free Energy           =   +2.98 kcal/mol
USER    (4) Unbound System's Energy  [=(2)] =   -0.39 kcal/mol
USER    
USER    
USER  
USER    DPF = D:/Protein_go_brrr/autodock/final/mut_Y35F/heme_O2/dock.dpf
USER    NEWDPF move	heme_O2_opt.pdbqt
USER    NEWDPF about	8.287000 34.468000 -0.670000
USER    NEWDPF tran0	-4.651823 -12.887857 -13.778727
USER    NEWDPF axisangle0	-0.311725 -0.357073 -0.880526 131.684195
USER    NEWDPF quaternion0	-0.284424 -0.325801 -0.803411 0.409253
USER    NEWDPF dihe0	81.74 -51.23 52.01 104.36 37.99 -79.69 -49.02 -26.64 157.13 -23.14 
USER  
USER                              x       y       z    vdW   Elec        q     RMS 
ATOM      1  C   UNL d   1      -4.574 -14.969 -14.180 -0.22 +0.01    +0.064    49.237
ATOM      2  C   UNL d   1      -1.195 -11.667 -13.699 -0.24 -0.01    +0.064    49.237
ATOM      3  C   UNL d   1      -4.502  -8.255 -12.980 -0.14 -0.00    +0.064    49.237
ATOM      4  C   UNL d   1      -7.969 -11.726 -12.998 -0.17 -0.01    +0.064    49.237
ATOM      5  C   UNL d   1      -3.385 -14.350 -14.106 -0.18 +0.01    +0.066    49.237
ATOM      6  C   UNL d   1      -2.156 -14.991 -14.285 -0.15 -0.00    -0.021    49.237
ATOM      7  C   UNL d   1      -1.175 -14.044 -14.103 -0.16 -0.00    -0.025    49.237
ATOM      8  C   UNL d   1      -1.833 -12.841 -13.866 -0.17 -0.00    +0.066    49.237
ATOM      9  C   UNL d   1       0.312 -14.322 -14.133 -0.15 -0.00    +0.051    49.237
ATOM     10  C   UNL d   1      -1.832 -10.369 -13.469 -0.23 -0.00    +0.066    49.237
ATOM     11  C   UNL d   1      -1.131  -9.158 -13.466 -0.27 +0.00    -0.021    49.237
ATOM     12  C   UNL d   1      -2.070  -8.160 -13.278 -0.22 -0.00    +0.000    49.237
ATOM     13  C   UNL d   1      -3.317  -8.836 -13.162 -0.11 -0.00    +0.070    49.237
ATOM     14  C   UNL d   1       0.367  -8.958 -13.662 -0.15 +0.01    +0.052    49.237
ATOM     15  C   UNL d   1      -5.781  -8.904 -12.823 -0.14 -0.01    +0.066    49.237
ATOM     16  C   UNL d   1      -6.962  -8.251 -12.471 -0.17 +0.00    -0.021    49.237
ATOM     17  C   UNL d   1      -7.964  -9.221 -12.469 -0.20 -0.00    +0.000    49.237
ATOM     18  C   UNL d   1      -7.311 -10.409 -12.826 -0.15 -0.01    +0.070    49.237
ATOM     19  C   UNL d   1      -7.017  -6.786 -12.117 -0.08 -0.01    +0.052    49.237
ATOM     20  C   UNL d   1      -7.366 -12.893 -13.298 -0.17 -0.00    +0.066    49.237
ATOM     21  C   UNL d   1      -8.041 -14.100 -13.464 -0.18 -0.00    -0.025    49.237
ATOM     22  C   UNL d   1      -7.093 -15.029 -13.828 -0.22 -0.00    -0.021    49.237
ATOM     23  C   UNL d   1      -5.867 -14.357 -13.853 -0.21 +0.00    +0.066    49.237
ATOM     24  C   UNL d   1      -9.515 -14.353 -13.281 -0.19 +0.00    +0.051    49.237
ATOM     25  N   UNL d   1      -3.193 -13.042 -13.802 -0.12 -0.00    -0.248    49.237
ATOM     26  N   UNL d   1      -3.162 -10.179 -13.275 -0.13 +0.02    -0.248    49.237
ATOM     27  N   UNL d   1      -5.975 -10.213 -12.964 -0.07 +0.02    -0.248    49.237
ATOM     28  N   UNL d   1      -6.031 -13.069 -13.486 -0.12 +0.01    -0.248    49.237
ATOM     29 FE   UNL d   1      -4.609 -11.633 -13.380 -0.04 -0.00    +0.000    49.237
ATOM     30  O   UNL d   1      -3.708 -12.002 -12.166 -0.44 -0.00    +0.000    49.237
ATOM     31  O   UNL d   1      -5.251 -11.767 -11.951 -0.43 -0.00    +0.000    49.237
ATOM     32  C   UNL d   1      -1.903 -16.463 -14.484 -0.20 +0.01    +0.052    49.237
ATOM     33  C   UNL d   1      -1.037 -17.068 -13.383 -0.19 +0.03    +0.115    49.237
ATOM     34  C   UNL d   1      -1.653 -18.308 -12.783 -0.17 +0.05    +0.139    49.237
ATOM     35  O   UNL d   1      -2.035 -18.291 -11.624 -0.66 -0.30    -0.650    49.237
ATOM     36  O   UNL d   1      -1.768 -19.450 -13.491 -0.02 -0.41    -0.776    49.237
ATOM     37  H   UNL d   1      -1.034 -20.068 -13.587 +0.03 +0.07    +0.167    49.237
ATOM     38  C   UNL d   1      -7.348 -16.494 -14.073 -0.09 +0.02    +0.052    49.237
ATOM     39  C   UNL d   1      -7.959 -16.756 -15.448 -0.11 +0.03    +0.115    49.237
ATOM     40  C   UNL d   1      -7.616 -18.125 -15.980 -0.04 +0.08    +0.139    49.237
ATOM     41  O   UNL d   1      -8.028 -19.119 -15.404 -0.05 -0.47    -0.650    49.237
ATOM     42  O   UNL d   1      -6.904 -18.273 -17.113 -0.00 -0.51    -0.776    49.237
ATOM     43  H   UNL d   1      -7.129 -17.791 -17.918 +0.01 +0.07    +0.167    49.237
ATOM     44  C   UNL d   1      -1.688  -6.696 -13.226 -0.26 +0.00    +0.004    49.237
ATOM     45  C   UNL d   1      -2.063  -5.783 -12.331 -0.27 +0.00    +0.012    49.237
ATOM     46  C   UNL d   1      -9.424  -9.133 -12.112 -0.28 -0.00    +0.004    49.237
ATOM     47  C   UNL d   1     -10.471  -8.989 -12.936 -0.22 -0.00    +0.012    49.237
TER
ENDMDL
MODEL       19
USER    Run = 19
USER    Cluster Rank = 7
USER    Number of conformations in this cluster = 4
USER  
USER    RMSD from reference structure       = 32.968 A
USER  
USER    Estimated Free Energy of Binding    =   -6.40 kcal/mol  [=(1)+(2)+(3)-(4)]
USER    Estimated Inhibition Constant, Ki   =   20.29 uM (micromolar)  [Temperature = 298.15 K]
USER    
USER    (1) Final Intermolecular Energy     =   -9.38 kcal/mol
USER        vdW + Hbond + desolv Energy     =   -5.91 kcal/mol
USER        Electrostatic Energy            =   -3.48 kcal/mol
USER    (2) Final Total Internal Energy     =   -2.07 kcal/mol
USER    (3) Torsional Free Energy           =   +2.98 kcal/mol
USER    (4) Unbound System's Energy  [=(2)] =   -2.07 kcal/mol
USER    
USER    
USER  
USER    DPF = D:/Protein_go_brrr/autodock/final/mut_Y35F/heme_O2/dock.dpf
USER    NEWDPF move	heme_O2_opt.pdbqt
USER    NEWDPF about	8.287000 34.468000 -0.670000
USER    NEWDPF tran0	-13.286482 8.712719 14.511413
USER    NEWDPF axisangle0	-0.930915 -0.345029 -0.119796 -139.084789
USER    NEWDPF quaternion0	-0.872204 -0.323269 -0.112240 -0.349514
USER    NEWDPF dihe0	-138.82 73.48 46.43 -107.91 57.86 -2.51 -95.38 96.78 -173.28 -148.16 
USER  
USER                              x       y       z    vdW   Elec        q     RMS 
ATOM      1  C   UNL d   1     -14.308   6.930  13.984 -0.09 +0.05    +0.064    32.968
ATOM      2  C   UNL d   1     -15.271  11.520  13.236 -0.02 +0.03    +0.064    32.968
ATOM      3  C   UNL d   1     -11.301  12.835  15.603 -0.07 +0.01    +0.064    32.968
ATOM      4  C   UNL d   1     -10.049   8.105  15.965 -0.16 +0.02    +0.064    32.968
ATOM      5  C   UNL d   1     -14.893   8.071  13.586 -0.06 +0.06    +0.066    32.968
ATOM      6  C   UNL d   1     -16.098   8.128  12.880 -0.04 -0.01    -0.021    32.968
ATOM      7  C   UNL d   1     -16.356   9.455  12.625 -0.03 -0.01    -0.025    32.968
ATOM      8  C   UNL d   1     -15.326  10.175  13.224 -0.05 +0.04    +0.066    32.968
ATOM      9  C   UNL d   1     -17.527   9.969  11.816 -0.00 +0.02    +0.051    32.968
ATOM     10  C   UNL d   1     -14.229  12.331  13.868 -0.03 +0.02    +0.066    32.968
ATOM     11  C   UNL d   1     -14.306  13.722  13.992 -0.01 -0.00    -0.021    32.968
ATOM     12  C   UNL d   1     -13.179  14.119  14.688 -0.02 +0.00    +0.000    32.968
ATOM     13  C   UNL d   1     -12.456  12.921  14.944 -0.05 +0.01    +0.070    32.968
ATOM     14  C   UNL d   1     -15.422  14.633  13.493 +0.00 +0.00    +0.052    32.968
ATOM     15  C   UNL d   1     -10.520  11.647  15.852 -0.05 +0.01    +0.066    32.968
ATOM     16  C   UNL d   1      -9.240  11.643  16.404 -0.08 -0.00    -0.021    32.968
ATOM     17  C   UNL d   1      -8.862  10.305  16.516 -0.11 +0.00    +0.000    32.968
ATOM     18  C   UNL d   1      -9.956   9.583  16.019 -0.13 +0.02    +0.070    32.968
ATOM     19  C   UNL d   1      -8.477  12.905  16.720 -0.09 +0.01    +0.052    32.968
ATOM     20  C   UNL d   1     -11.065   7.381  15.455 -0.15 +0.03    +0.066    32.968
ATOM     21  C   UNL d   1     -11.105   5.990  15.448 -0.18 -0.01    -0.025    32.968
ATOM     22  C   UNL d   1     -12.323   5.637  14.912 -0.16 -0.01    -0.021    32.968
ATOM     23  C   UNL d   1     -12.977   6.832  14.594 -0.11 +0.04    +0.066    32.968
ATOM     24  C   UNL d   1     -10.033   5.044  15.925 -0.24 +0.01    +0.051    32.968
ATOM     25  N   UNL d   1     -14.391   9.319  13.759 -0.07 -0.23    -0.248    32.968
ATOM     26  N   UNL d   1     -13.100  11.838  14.437 -0.06 -0.10    -0.248    32.968
ATOM     27  N   UNL d   1     -10.922  10.415  15.552 -0.07 -0.08    -0.248    32.968
ATOM     28  N   UNL d   1     -12.190   7.888  14.884 -0.10 -0.16    -0.248    32.968
ATOM     29 FE   UNL d   1     -12.639   9.849  14.663 -0.02 +0.00    +0.000    32.968
ATOM     30  O   UNL d   1     -12.662  10.120  13.131 -0.73 +0.00    +0.000    32.968
ATOM     31  O   UNL d   1     -11.353   9.560  13.805 -0.21 +0.00    +0.000    32.968
ATOM     32  C   UNL d   1     -16.909   6.977  12.343 -0.03 +0.03    +0.052    32.968
ATOM     33  C   UNL d   1     -16.502   6.575  10.929 -0.06 +0.08    +0.115    32.968
ATOM     34  C   UNL d   1     -15.298   5.665  10.913 -0.16 +0.16    +0.139    32.968
ATOM     35  O   UNL d   1     -14.182   6.143  10.793 -0.02 -1.11    -0.650    32.968
ATOM     36  O   UNL d   1     -15.429   4.325  11.001 -0.01 -0.97    -0.776    32.968
ATOM     37  H   UNL d   1     -14.837   3.789  11.542 +0.04 +0.23    +0.167    32.968
ATOM     38  C   UNL d   1     -12.799   4.229  14.663 -0.21 +0.02    +0.052    32.968
ATOM     39  C   UNL d   1     -11.735   3.367  13.987 -0.40 +0.05    +0.115    32.968
ATOM     40  C   UNL d   1     -11.728   3.530  12.487 -0.45 +0.14    +0.139    32.968
ATOM     41  O   UNL d   1     -10.668   3.534  11.883 -0.60 -0.79    -0.650    32.968
ATOM     42  O   UNL d   1     -12.878   3.622  11.792 -0.47 -1.35    -0.776    32.968
ATOM     43  H   UNL d   1     -13.401   4.433  11.784 +0.05 +0.27    +0.167    32.968
ATOM     44  C   UNL d   1     -12.912  15.570  15.027 -0.01 -0.00    +0.004    32.968
ATOM     45  C   UNL d   1     -11.755  16.228  14.956 -0.02 -0.00    +0.012    32.968
ATOM     46  C   UNL d   1      -7.575   9.678  16.982 -0.14 +0.00    +0.004    32.968
ATOM     47  C   UNL d   1      -6.701   8.954  16.271 -0.27 +0.00    +0.012    32.968
TER
ENDMDL
MODEL       10
USER    Run = 10
USER    Cluster Rank = 8
USER    Number of conformations in this cluster = 6
USER  
USER    RMSD from reference structure       = 25.615 A
USER  
USER    Estimated Free Energy of Binding    =   -6.26 kcal/mol  [=(1)+(2)+(3)-(4)]
USER    Estimated Inhibition Constant, Ki   =   25.60 uM (micromolar)  [Temperature = 298.15 K]
USER    
USER    (1) Final Intermolecular Energy     =   -9.25 kcal/mol
USER        vdW + Hbond + desolv Energy     =   -6.66 kcal/mol
USER        Electrostatic Energy            =   -2.58 kcal/mol
USER    (2) Final Total Internal Energy     =   -0.84 kcal/mol
USER    (3) Torsional Free Energy           =   +2.98 kcal/mol
USER    (4) Unbound System's Energy  [=(2)] =   -0.84 kcal/mol
USER    
USER    
USER  
USER    DPF = D:/Protein_go_brrr/autodock/final/mut_Y35F/heme_O2/dock.dpf
USER    NEWDPF move	heme_O2_opt.pdbqt
USER    NEWDPF about	8.287000 34.468000 -0.670000
USER    NEWDPF tran0	15.321993 7.442824 4.783164
USER    NEWDPF axisangle0	-0.576428 -0.325450 -0.749542 82.444918
USER    NEWDPF quaternion0	-0.379857 -0.214466 -0.493936 0.752157
USER    NEWDPF dihe0	28.30 107.61 -56.30 124.54 155.68 -31.18 -94.45 101.62 174.55 -160.99 
USER  
USER                              x       y       z    vdW   Elec        q     RMS 
ATOM      1  C   UNL d   1      13.629   6.171   4.661 -0.17 +0.02    +0.064    25.615
ATOM      2  C   UNL d   1      18.291   5.293   4.883 -0.16 +0.03    +0.064    25.615
ATOM      3  C   UNL d   1      19.266   9.998   4.979 -0.11 +0.02    +0.064    25.615
ATOM      4  C   UNL d   1      14.452  10.907   5.233 -0.10 +0.01    +0.064    25.615
ATOM      5  C   UNL d   1      14.817   5.548   4.715 -0.19 +0.02    +0.066    25.615
ATOM      6  C   UNL d   1      14.976   4.160   4.685 -0.33 -0.01    -0.021    25.615
ATOM      7  C   UNL d   1      16.323   3.903   4.793 -0.25 -0.01    -0.025    25.615
ATOM      8  C   UNL d   1      16.954   5.143   4.837 -0.19 +0.02    +0.066    25.615
ATOM      9  C   UNL d   1      16.937   2.523   4.877 -0.26 +0.01    +0.051    25.615
ATOM     10  C   UNL d   1      19.011   6.567   4.908 -0.15 +0.04    +0.066    25.615
ATOM     11  C   UNL d   1      20.402   6.668   4.790 -0.08 -0.02    -0.021    25.615
ATOM     12  C   UNL d   1      20.701   8.018   4.797 -0.12 +0.00    +0.000    25.615
ATOM     13  C   UNL d   1      19.449   8.678   4.935 -0.14 +0.04    +0.070    25.615
ATOM     14  C   UNL d   1      21.401   5.525   4.648 -0.04 +0.04    +0.052    25.615
ATOM     15  C   UNL d   1      18.020  10.705   5.153 -0.03 +0.02    +0.066    25.615
ATOM     16  C   UNL d   1      17.913  12.080   5.355 -0.06 -0.00    -0.021    25.615
ATOM     17  C   UNL d   1      16.549  12.363   5.431 -0.07 +0.00    +0.000    25.615
ATOM     18  C   UNL d   1      15.918  11.122   5.265 -0.03 +0.02    +0.070    25.615
ATOM     19  C   UNL d   1      19.110  12.984   5.511 -0.04 +0.01    +0.052    25.615
ATOM     20  C   UNL d   1      13.814   9.726   5.119 -0.12 +0.01    +0.066    25.615
ATOM     21  C   UNL d   1      12.430   9.588   5.077 -0.16 -0.00    -0.025    25.615
ATOM     22  C   UNL d   1      12.177   8.248   4.886 -0.23 -0.00    -0.021    25.615
ATOM     23  C   UNL d   1      13.422   7.613   4.838 -0.20 +0.01    +0.066    25.615
ATOM     24  C   UNL d   1      11.400  10.679   5.214 -0.17 +0.00    +0.051    25.615
ATOM     25  N   UNL d   1      16.022   6.155   4.855 -0.12 -0.08    -0.248    25.615
ATOM     26  N   UNL d   1      18.427   7.788   5.007 -0.11 -0.13    -0.248    25.615
ATOM     27  N   UNL d   1      16.827  10.118   5.173 -0.02 -0.11    -0.248    25.615
ATOM     28  N   UNL d   1      14.413   8.509   5.025 -0.10 -0.06    -0.248    25.615
ATOM     29 FE   UNL d   1      16.406   8.154   5.016 -0.04 +0.00    +0.000    25.615
ATOM     30  O   UNL d   1      16.710   7.350   6.314 -0.08 +0.00    +0.000    25.615
ATOM     31  O   UNL d   1      16.043   8.773   6.416 -0.09 +0.00    +0.000    25.615
ATOM     32  C   UNL d   1      13.897   3.107   4.693 -0.42 +0.02    +0.052    25.615
ATOM     33  C   UNL d   1      13.703   2.469   6.065 -0.33 +0.05    +0.115    25.615
ATOM     34  C   UNL d   1      12.806   3.289   6.959 -0.18 +0.12    +0.139    25.615
ATOM     35  O   UNL d   1      12.264   4.289   6.516 -0.45 -0.65    -0.650    25.615
ATOM     36  O   UNL d   1      12.609   2.958   8.252 -0.10 -1.09    -0.776    25.615
ATOM     37  H   UNL d   1      13.276   2.489   8.767 +0.03 +0.16    +0.167    25.615
ATOM     38  C   UNL d   1      10.813   7.612   4.821 -0.16 +0.01    +0.052    25.615
ATOM     39  C   UNL d   1      10.000   7.845   6.093 -0.19 +0.03    +0.115    25.615
ATOM     40  C   UNL d   1      10.398   6.913   7.210 -0.19 +0.10    +0.139    25.615
ATOM     41  O   UNL d   1      10.930   7.360   8.213 -0.03 -0.48    -0.650    25.615
ATOM     42  O   UNL d   1      10.129   5.594   7.144 -0.48 -1.05    -0.776    25.615
ATOM     43  H   UNL d   1      10.830   4.941   7.032 +0.03 +0.26    +0.167    25.615
ATOM     44  C   UNL d   1      22.122   8.527   4.678 -0.08 +0.00    +0.004    25.615
ATOM     45  C   UNL d   1      22.635   9.311   3.730 -0.08 +0.01    +0.012    25.615
ATOM     46  C   UNL d   1      15.821  13.653   5.697 -0.04 +0.00    +0.004    25.615
ATOM     47  C   UNL d   1      14.975  14.308   4.891 -0.05 -0.00    +0.012    25.615
TER
ENDMDL
MODEL       44
USER    Run = 44
USER    Cluster Rank = 9
USER    Number of conformations in this cluster = 4
USER  
USER    RMSD from reference structure       = 52.657 A
USER  
USER    Estimated Free Energy of Binding    =   -6.25 kcal/mol  [=(1)+(2)+(3)-(4)]
USER    Estimated Inhibition Constant, Ki   =   26.19 uM (micromolar)  [Temperature = 298.15 K]
USER    
USER    (1) Final Intermolecular Energy     =   -9.23 kcal/mol
USER        vdW + Hbond + desolv Energy     =   -6.19 kcal/mol
USER        Electrostatic Energy            =   -3.04 kcal/mol
USER    (2) Final Total Internal Energy     =   -0.53 kcal/mol
USER    (3) Torsional Free Energy           =   +2.98 kcal/mol
USER    (4) Unbound System's Energy  [=(2)] =   -0.53 kcal/mol
USER    
USER    
USER  
USER    DPF = D:/Protein_go_brrr/autodock/final/mut_Y35F/heme_O2/dock.dpf
USER    NEWDPF move	heme_O2_opt.pdbqt
USER    NEWDPF about	8.287000 34.468000 -0.670000
USER    NEWDPF tran0	-4.758539 -15.597825 -16.292343
USER    NEWDPF axisangle0	0.556378 0.145116 0.818159 -145.458127
USER    NEWDPF quaternion0	0.531292 0.138573 0.781270 -0.296891
USER    NEWDPF dihe0	18.68 -107.53 -34.61 -158.09 3.65 -145.85 -99.91 -85.20 175.04 147.72 
USER  
USER                              x       y       z    vdW   Elec        q     RMS 
ATOM      1  C   UNL d   1      -5.194 -17.134 -17.688 -0.07 +0.03    +0.064    52.657
ATOM      2  C   UNL d   1      -1.253 -14.641 -16.788 -0.02 +0.00    +0.064    52.657
ATOM      3  C   UNL d   1      -3.511 -12.129 -13.370 -0.25 -0.00    +0.064    52.657
ATOM      4  C   UNL d   1      -7.436 -15.014 -13.958 -0.18 +0.01    +0.064    52.657
ATOM      5  C   UNL d   1      -3.938 -16.662 -17.721 -0.06 +0.02    +0.066    52.657
ATOM      6  C   UNL d   1      -2.954 -17.116 -18.605 -0.03 -0.01    -0.021    52.657
ATOM      7  C   UNL d   1      -1.801 -16.425 -18.317 -0.01 -0.00    -0.025    52.657
ATOM      8  C   UNL d   1      -2.124 -15.535 -17.296 -0.02 +0.01    +0.066    52.657
ATOM      9  C   UNL d   1      -0.463 -16.655 -18.986 -0.00 +0.01    +0.051    52.657
ATOM     10  C   UNL d   1      -1.540 -13.668 -15.734 -0.04 +0.00    +0.066    52.657
ATOM     11  C   UNL d   1      -0.650 -12.655 -15.359 -0.07 -0.00    -0.021    52.657
ATOM     12  C   UNL d   1      -1.291 -11.909 -14.386 -0.17 -0.00    +0.000    52.657
ATOM     13  C   UNL d   1      -2.559 -12.530 -14.212 -0.15 -0.00    +0.070    52.657
ATOM     14  C   UNL d   1       0.741 -12.394 -15.923 -0.07 +0.00    +0.052    52.657
ATOM     15  C   UNL d   1      -4.793 -12.751 -13.138 -0.18 -0.01    +0.066    52.657
ATOM     16  C   UNL d   1      -5.680 -12.381 -12.127 -0.26 +0.01    -0.021    52.657
ATOM     17  C   UNL d   1      -6.806 -13.190 -12.274 -0.35 -0.00    +0.000    52.657
ATOM     18  C   UNL d   1      -6.519 -14.003 -13.380 -0.23 -0.00    +0.070    52.657
ATOM     19  C   UNL d   1      -5.353 -11.337 -11.088 -0.44 -0.01    +0.052    52.657
ATOM     20  C   UNL d   1      -7.176 -15.839 -14.990 -0.13 +0.02    +0.066    52.657
ATOM     21  C   UNL d   1      -8.087 -16.760 -15.502 -0.11 -0.01    -0.025    52.657
ATOM     22  C   UNL d   1      -7.475 -17.354 -16.582 -0.10 -0.01    -0.021    52.657
ATOM     23  C   UNL d   1      -6.202 -16.785 -16.680 -0.09 +0.03    +0.066    52.657
ATOM     24  C   UNL d   1      -9.469 -17.059 -14.983 -0.08 +0.01    +0.051    52.657
ATOM     25  N   UNL d   1      -3.423 -15.727 -16.886 -0.03 -0.05    -0.248    52.657
ATOM     26  N   UNL d   1      -2.700 -13.602 -15.032 -0.05 -0.02    -0.248    52.657
ATOM     27  N   UNL d   1      -5.264 -13.774 -13.845 -0.14 -0.01    -0.248    52.657
ATOM     28  N   UNL d   1      -6.008 -15.897 -15.682 -0.09 -0.07    -0.248    52.657
ATOM     29 FE   UNL d   1      -4.367 -14.757 -15.357 -0.02 +0.00    +0.000    52.657
ATOM     30  O   UNL d   1      -3.247 -15.730 -14.887 -0.22 +0.00    +0.000    52.657
ATOM     31  O   UNL d   1      -4.593 -15.636 -14.073 -0.29 +0.00    +0.000    52.657
ATOM     32  C   UNL d   1      -3.052 -18.250 -19.592 -0.02 +0.01    +0.052    52.657
ATOM     33  C   UNL d   1      -2.380 -19.527 -19.096 -0.03 +0.05    +0.115    52.657
ATOM     34  C   UNL d   1      -3.225 -20.267 -18.089 +0.01 +0.15    +0.139    52.657
ATOM     35  O   UNL d   1      -2.684 -20.896 -17.194 -0.07 -0.84    -0.650    52.657
ATOM     36  O   UNL d   1      -4.572 -20.276 -18.171 -0.35 -1.25    -0.776    52.657
ATOM     37  H   UNL d   1      -5.035 -20.054 -18.987 +0.00 +0.14    +0.167    52.657
ATOM     38  C   UNL d   1      -8.063 -18.453 -17.430 -0.07 +0.02    +0.052    52.657
ATOM     39  C   UNL d   1      -7.350 -19.788 -17.228 +0.01 +0.11    +0.115    52.657
ATOM     40  C   UNL d   1      -8.020 -20.647 -16.185 -0.05 +0.14    +0.139    52.657
ATOM     41  O   UNL d   1      -9.006 -20.230 -15.598 -0.03 -0.36    -0.650    52.657
ATOM     42  O   UNL d   1      -7.580 -21.893 -15.923 -0.20 -1.30    -0.776    52.657
ATOM     43  H   UNL d   1      -8.057 -22.672 -16.235 +0.00 +0.15    +0.167    52.657
ATOM     44  C   UNL d   1      -0.638 -10.707 -13.736 -0.30 -0.00    +0.004    52.657
ATOM     45  C   UNL d   1      -1.207  -9.552 -13.394 -0.30 -0.00    +0.012    52.657
ATOM     46  C   UNL d   1      -8.061 -13.296 -11.450 -0.39 -0.00    +0.004    52.657
ATOM     47  C   UNL d   1      -8.983 -14.268 -11.465 -0.44 +0.00    +0.012    52.657
TER
ENDMDL
MODEL       23
USER    Run = 23
USER    Cluster Rank = 10
USER    Number of conformations in this cluster = 2
USER  
USER    RMSD from reference structure       = 50.758 A
USER  
USER    Estimated Free Energy of Binding    =   -6.20 kcal/mol  [=(1)+(2)+(3)-(4)]
USER    Estimated Inhibition Constant, Ki   =   28.30 uM (micromolar)  [Temperature = 298.15 K]
USER    
USER    (1) Final Intermolecular Energy     =   -9.19 kcal/mol
USER        vdW + Hbond + desolv Energy     =   -8.43 kcal/mol
USER        Electrostatic Energy            =   -0.75 kcal/mol
USER    (2) Final Total Internal Energy     =   -0.61 kcal/mol
USER    (3) Torsional Free Energy           =   +2.98 kcal/mol
USER    (4) Unbound System's Energy  [=(2)] =   -0.61 kcal/mol
USER    
USER    
USER  
USER    DPF = D:/Protein_go_brrr/autodock/final/mut_Y35F/heme_O2/dock.dpf
USER    NEWDPF move	heme_O2_opt.pdbqt
USER    NEWDPF about	8.287000 34.468000 -0.670000
USER    NEWDPF tran0	2.047800 -16.907885 -7.738040
USER    NEWDPF axisangle0	-0.963807 -0.240573 -0.114894 153.892879
USER    NEWDPF quaternion0	-0.938902 -0.234357 -0.111925 0.225862
USER    NEWDPF dihe0	34.28 -69.57 52.16 147.12 87.20 -59.61 65.01 -37.16 161.97 155.81 
USER  
USER                              x       y       z    vdW   Elec        q     RMS 
ATOM      1  C   UNL d   1       0.412 -18.002  -6.948 -0.27 -0.05    +0.064    50.758
ATOM      2  C   UNL d   1       1.538 -16.655 -11.361 -0.19 -0.01    +0.064    50.758
ATOM      3  C   UNL d   1       5.501 -14.448  -9.775 -0.25 -0.02    +0.064    50.758
ATOM      4  C   UNL d   1       4.605 -16.236  -5.295 -0.19 -0.02    +0.064    50.758
ATOM      5  C   UNL d   1       0.395 -17.817  -8.278 -0.26 -0.03    +0.066    50.758
ATOM      6  C   UNL d   1      -0.616 -18.287  -9.121 -0.31 +0.01    -0.021    50.758
ATOM      7  C   UNL d   1      -0.269 -17.935 -10.404 -0.27 +0.00    -0.025    50.758
ATOM      8  C   UNL d   1       0.920 -17.218 -10.304 -0.25 -0.02    +0.066    50.758
ATOM      9  C   UNL d   1      -1.048 -18.310 -11.646 -0.27 +0.01    +0.051    50.758
ATOM     10  C   UNL d   1       2.774 -15.872 -11.315 -0.18 -0.02    +0.066    50.758
ATOM     11  C   UNL d   1       3.283 -15.173 -12.415 -0.15 +0.01    -0.021    50.758
ATOM     12  C   UNL d   1       4.416 -14.516 -11.973 -0.20 -0.00    +0.000    50.758
ATOM     13  C   UNL d   1       4.544 -14.869 -10.601 -0.21 -0.02    +0.070    50.758
ATOM     14  C   UNL d   1       2.698 -15.112 -13.821 -0.10 -0.01    +0.052    50.758
ATOM     15  C   UNL d   1       5.685 -14.810  -8.390 -0.21 -0.03    +0.066    50.758
ATOM     16  C   UNL d   1       6.799 -14.467  -7.624 -0.19 +0.01    -0.021    50.758
ATOM     17  C   UNL d   1       6.566 -14.967  -6.343 -0.20 -0.00    +0.000    50.758
ATOM     18  C   UNL d   1       5.310 -15.584  -6.424 -0.20 -0.03    +0.070    50.758
ATOM     19  C   UNL d   1       7.997 -13.748  -8.192 -0.18 -0.04    +0.052    50.758
ATOM     20  C   UNL d   1       3.421 -16.875  -5.348 -0.22 -0.02    +0.066    50.758
ATOM     21  C   UNL d   1       2.797 -17.455  -4.246 -0.22 +0.01    -0.025    50.758
ATOM     22  C   UNL d   1       1.588 -17.939  -4.693 -0.22 +0.01    -0.021    50.758
ATOM     23  C   UNL d   1       1.526 -17.652  -6.060 -0.30 -0.04    +0.066    50.758
ATOM     24  C   UNL d   1       3.329 -17.545  -2.840 -0.27 -0.01    +0.051    50.758
ATOM     25  N   UNL d   1       1.363 -17.202  -9.002 -0.05 +0.11    -0.248    50.758
ATOM     26  N   UNL d   1       3.543 -15.698 -10.210 -0.14 +0.10    -0.248    50.758
ATOM     27  N   UNL d   1       4.825 -15.545  -7.691 -0.15 +0.10    -0.248    50.758
ATOM     28  N   UNL d   1       2.662 -17.045  -6.463 -0.05 +0.12    -0.248    50.758
ATOM     29 FE   UNL d   1       3.102 -16.376  -8.322 -0.06 -0.00    +0.000    50.758
ATOM     30  O   UNL d   1       3.310 -17.643  -9.202 -0.14 -0.00    +0.000    50.758
ATOM     31  O   UNL d   1       4.205 -17.424  -7.924 -0.14 -0.00    +0.000    50.758
ATOM     32  C   UNL d   1      -1.794 -19.152  -8.756 -0.34 -0.02    +0.052    50.758
ATOM     33  C   UNL d   1      -1.738 -20.532  -9.405 -0.19 -0.02    +0.115    50.758
ATOM     34  C   UNL d   1      -2.891 -20.772 -10.348 -0.19 +0.02    +0.139    50.758
ATOM     35  O   UNL d   1      -4.032 -20.797  -9.913 -0.05 -0.09    -0.650    50.758
ATOM     36  O   UNL d   1      -2.690 -20.988 -11.664 +0.00 -0.31    -0.776    50.758
ATOM     37  H   UNL d   1      -1.919 -21.467 -11.991 +0.03 +0.06    +0.167    50.758
ATOM     38  C   UNL d   1       0.582 -18.692  -3.861 -0.27 -0.03    +0.052    50.758
ATOM     39  C   UNL d   1       0.621 -20.197  -4.122 -0.16 -0.06    +0.115    50.758
ATOM     40  C   UNL d   1       0.423 -21.005  -2.864 -0.18 +0.00    +0.139    50.758
ATOM     41  O   UNL d   1      -0.707 -21.250  -2.473 -0.35 -0.38    -0.650    50.758
ATOM     42  O   UNL d   1       1.473 -21.507  -2.186 +0.02 -0.02    -0.776    50.758
ATOM     43  H   UNL d   1       2.031 -22.199  -2.562 +0.02 -0.01    +0.167    50.758
ATOM     44  C   UNL d   1       5.246 -13.639 -12.888 -0.15 -0.00    +0.004    50.758
ATOM     45  C   UNL d   1       6.569 -13.641 -13.045 -0.12 -0.00    +0.012    50.758
ATOM     46  C   UNL d   1       7.428 -14.960  -5.108 -0.22 -0.00    +0.004    50.758
ATOM     47  C   UNL d   1       7.054 -14.758  -3.838 -0.26 -0.01    +0.012    50.758
TER
ENDMDL
MODEL       57
USER    Run = 57
USER    Cluster Rank = 11
USER    Number of conformations in this cluster = 2
USER  
USER    RMSD from reference structure       = 32.092 A
USER  
USER    Estimated Free Energy of Binding    =   -6.19 kcal/mol  [=(1)+(2)+(3)-(4)]
USER    Estimated Inhibition Constant, Ki   =   28.85 uM (micromolar)  [Temperature = 298.15 K]
USER    
USER    (1) Final Intermolecular Energy     =   -9.18 kcal/mol
USER        vdW + Hbond + desolv Energy     =   -6.33 kcal/mol
USER        Electrostatic Energy            =   -2.85 kcal/mol
USER    (2) Final Total Internal Energy     =   -1.19 kcal/mol
USER    (3) Torsional Free Energy           =   +2.98 kcal/mol
USER    (4) Unbound System's Energy  [=(2)] =   -1.19 kcal/mol
USER    
USER    
USER  
USER    DPF = D:/Protein_go_brrr/autodock/final/mut_Y35F/heme_O2/dock.dpf
USER    NEWDPF move	heme_O2_opt.pdbqt
USER    NEWDPF about	8.287000 34.468000 -0.670000
USER    NEWDPF tran0	8.444240 1.778192 12.594961
USER    NEWDPF axisangle0	-0.340701 0.202952 0.918005 122.931553
USER    NEWDPF quaternion0	-0.299317 0.178300 0.806497 0.477684
USER    NEWDPF dihe0	32.24 -62.76 -120.74 102.86 146.94 88.04 -123.15 -95.92 -46.70 -41.86 
USER  
USER                              x       y       z    vdW   Elec        q     RMS 
ATOM      1  C   UNL d   1      10.048   3.128  12.919 -0.04 +0.05    +0.064    32.092
ATOM      2  C   UNL d   1       5.388   3.413  13.795 -0.14 +0.01    +0.064    32.092
ATOM      3  C   UNL d   1       4.678  -0.961  11.934 -0.19 -0.05    +0.064    32.092
ATOM      4  C   UNL d   1       9.535  -1.461  11.465 -0.11 +0.01    +0.064    32.092
ATOM      5  C   UNL d   1       8.839   3.562  13.310 -0.08 +0.04    +0.066    32.092
ATOM      6  C   UNL d   1       8.605   4.814  13.886 -0.07 -0.01    -0.021    32.092
ATOM      7  C   UNL d   1       7.263   4.880  14.180 -0.10 -0.01    -0.025    32.092
ATOM      8  C   UNL d   1       6.706   3.686  13.731 -0.10 +0.01    +0.066    32.092
ATOM      9  C   UNL d   1       6.587   6.036  14.885 -0.14 +0.01    +0.051    32.092
ATOM     10  C   UNL d   1       4.743   2.188  13.320 -0.14 -0.00    +0.066    32.092
ATOM     11  C   UNL d   1       3.355   2.024  13.260 -0.21 +0.00    -0.021    32.092
ATOM     12  C   UNL d   1       3.129   0.775  12.709 -0.27 -0.00    +0.000    32.092
ATOM     13  C   UNL d   1       4.422   0.232  12.470 -0.19 -0.03    +0.070    32.092
ATOM     14  C   UNL d   1       2.287   3.026  13.684 -0.35 -0.01    +0.052    32.092
ATOM     15  C   UNL d   1       5.971  -1.561  11.709 -0.21 -0.03    +0.066    32.092
ATOM     16  C   UNL d   1       6.169  -2.879  11.297 -0.24 +0.01    -0.021    32.092
ATOM     17  C   UNL d   1       7.547  -3.045  11.157 -0.17 -0.00    +0.000    32.092
ATOM     18  C   UNL d   1       8.093  -1.799  11.497 -0.12 -0.00    +0.070    32.092
ATOM     19  C   UNL d   1       5.043  -3.867  11.129 +0.04 -0.05    +0.052    32.092
ATOM     20  C   UNL d   1      10.096  -0.290  11.825 -0.10 +0.02    +0.066    32.092
ATOM     21  C   UNL d   1      11.461  -0.025  11.757 -0.10 -0.01    -0.025    32.092
ATOM     22  C   UNL d   1      11.622   1.287  12.141 -0.09 -0.01    -0.021    32.092
ATOM     23  C   UNL d   1      10.347   1.770  12.449 -0.07 +0.05    +0.066    32.092
ATOM     24  C   UNL d   1      12.556  -0.976  11.348 -0.07 +0.01    +0.051    32.092
ATOM     25  N   UNL d   1       7.688   2.848  13.255 -0.05 -0.09    -0.248    32.092
ATOM     26  N   UNL d   1       5.398   1.096  12.849 -0.07 +0.02    -0.248    32.092
ATOM     27  N   UNL d   1       7.128  -0.934  11.901 -0.07 +0.02    -0.248    32.092
ATOM     28  N   UNL d   1       9.427   0.795  12.299 -0.07 -0.11    -0.248    32.092
ATOM     29 FE   UNL d   1       7.427   0.942  12.571 -0.02 +0.00    +0.000    32.092
ATOM     30  O   UNL d   1       7.207   1.094  14.105 -0.05 +0.00    +0.000    32.092
ATOM     31  O   UNL d   1       7.955  -0.174  13.546 -0.05 +0.00    +0.000    32.092
ATOM     32  C   UNL d   1       9.622   5.856  14.274 -0.04 +0.02    +0.052    32.092
ATOM     33  C   UNL d   1      10.783   5.945  13.289 -0.05 +0.06    +0.115    32.092
ATOM     34  C   UNL d   1      10.320   6.172  11.872 +0.00 +0.15    +0.139    32.092
ATOM     35  O   UNL d   1       9.125   6.189  11.623 -0.36 -0.71    -0.650    32.092
ATOM     36  O   UNL d   1      11.199   6.331  10.861 -0.02 -1.00    -0.776    32.092
ATOM     37  H   UNL d   1      12.054   5.885  10.852 +0.01 +0.21    +0.167    32.092
ATOM     38  C   UNL d   1      12.938   2.010  12.266 -0.06 +0.03    +0.052    32.092
ATOM     39  C   UNL d   1      13.701   2.063  10.944 -0.07 +0.07    +0.115    32.092
ATOM     40  C   UNL d   1      13.237   3.189  10.055 +0.01 +0.17    +0.139    32.092
ATOM     41  O   UNL d   1      12.909   2.955   8.902 -0.33 -0.94    -0.650    32.092
ATOM     42  O   UNL d   1      13.127   4.446  10.525 -0.32 -0.96    -0.776    32.092
ATOM     43  H   UNL d   1      12.539   4.661  11.259 +0.00 +0.21    +0.167    32.092
ATOM     44  C   UNL d   1       1.732   0.240  12.476 -0.44 -0.00    +0.004    32.092
ATOM     45  C   UNL d   1       0.742   0.808  11.789 -0.63 -0.00    +0.012    32.092
ATOM     46  C   UNL d   1       8.365  -4.256  10.798 -0.15 -0.00    +0.004    32.092
ATOM     47  C   UNL d   1       8.839  -4.610   9.596 -0.25 +0.00    +0.012    32.092
TER
ENDMDL
MODEL        3
USER    Run = 3
USER    Cluster Rank = 12
USER    Number of conformations in this cluster = 1
USER  
USER    RMSD from reference structure       = 46.816 A
USER  
USER    Estimated Free Energy of Binding    =   -6.11 kcal/mol  [=(1)+(2)+(3)-(4)]
USER    Estimated Inhibition Constant, Ki   =   33.02 uM (micromolar)  [Temperature = 298.15 K]
USER    
USER    (1) Final Intermolecular Energy     =   -9.10 kcal/mol
USER        vdW + Hbond + desolv Energy     =   -8.15 kcal/mol
USER        Electrostatic Energy            =   -0.95 kcal/mol
USER    (2) Final Total Internal Energy     =   -0.20 kcal/mol
USER    (3) Torsional Free Energy           =   +2.98 kcal/mol
USER    (4) Unbound System's Energy  [=(2)] =   -0.20 kcal/mol
USER    
USER    
USER  
USER    DPF = D:/Protein_go_brrr/autodock/final/mut_Y35F/heme_O2/dock.dpf
USER    NEWDPF move	heme_O2_opt.pdbqt
USER    NEWDPF about	8.287000 34.468000 -0.670000
USER    NEWDPF tran0	-3.497130 -10.735079 -13.773627
USER    NEWDPF axisangle0	-0.066316 0.361148 0.930147 150.164590
USER    NEWDPF quaternion0	-0.064081 0.348976 0.898798 0.257431
USER    NEWDPF dihe0	69.23 -135.36 42.90 -4.43 -102.57 -162.64 25.66 -71.93 138.08 12.01 
USER  
USER                              x       y       z    vdW   Elec        q     RMS 
ATOM      1  C   UNL d   1      -1.403 -10.637 -14.095 -0.18 -0.00    +0.064    46.816
ATOM      2  C   UNL d   1      -4.645  -7.329 -13.047 -0.11 -0.00    +0.064    46.816
ATOM      3  C   UNL d   1      -8.149 -10.618 -13.087 -0.18 -0.01    +0.064    46.816
ATOM      4  C   UNL d   1      -4.755 -14.108 -13.694 -0.15 +0.00    +0.064    46.816
ATOM      5  C   UNL d   1      -1.999  -9.469 -13.805 -0.18 -0.00    +0.066    46.816
ATOM      6  C   UNL d   1      -1.326  -8.247 -13.721 -0.21 -0.00    -0.021    46.816
ATOM      7  C   UNL d   1      -2.256  -7.295 -13.375 -0.18 -0.00    -0.025    46.816
ATOM      8  C   UNL d   1      -3.481  -7.954 -13.304 -0.11 -0.00    +0.066    46.816
ATOM      9  C   UNL d   1      -1.946  -5.840 -13.103 -0.23 +0.00    +0.051    46.816
ATOM     10  C   UNL d   1      -5.963  -7.963 -12.982 -0.12 -0.00    +0.066    46.816
ATOM     11  C   UNL d   1      -7.158  -7.243 -12.874 -0.14 +0.00    -0.021    46.816
ATOM     12  C   UNL d   1      -8.181  -8.173 -12.902 -0.14 -0.00    +0.000    46.816
ATOM     13  C   UNL d   1      -7.537  -9.436 -13.016 -0.13 -0.01    +0.070    46.816
ATOM     14  C   UNL d   1      -7.319  -5.731 -12.776 -0.12 +0.00    +0.052    46.816
ATOM     15  C   UNL d   1      -7.532 -11.920 -13.167 -0.15 -0.01    +0.066    46.816
ATOM     16  C   UNL d   1      -8.222 -13.129 -13.073 -0.21 +0.00    -0.021    46.816
ATOM     17  C   UNL d   1      -7.275 -14.138 -13.242 -0.26 +0.00    +0.000    46.816
ATOM     18  C   UNL d   1      -6.062 -13.461 -13.432 -0.21 -0.00    +0.070    46.816
ATOM     19  C   UNL d   1      -9.699 -13.212 -12.777 -0.23 +0.00    +0.052    46.816
ATOM     20  C   UNL d   1      -3.566 -13.490 -13.838 -0.13 +0.00    +0.066    46.816
ATOM     21  C   UNL d   1      -2.370 -14.152 -14.101 -0.15 -0.00    -0.025    46.816
ATOM     22  C   UNL d   1      -1.408 -13.177 -14.245 -0.17 -0.00    -0.021    46.816
ATOM     23  C   UNL d   1      -2.053 -11.952 -14.046 -0.17 -0.00    +0.066    46.816
ATOM     24  C   UNL d   1      -2.154 -15.639 -14.206 -0.20 +0.01    +0.051    46.816
ATOM     25  N   UNL d   1      -3.310  -9.305 -13.505 -0.09 +0.01    -0.248    46.816
ATOM     26  N   UNL d   1      -6.187  -9.299 -13.060 -0.06 +0.02    -0.248    46.816
ATOM     27  N   UNL d   1      -6.225 -12.119 -13.309 -0.09 +0.02    -0.248    46.816
ATOM     28  N   UNL d   1      -3.355 -12.150 -13.754 -0.12 +0.01    -0.248    46.816
ATOM     29 FE   UNL d   1      -4.763 -10.737 -13.409 -0.04 -0.00    +0.000    46.816
ATOM     30  O   UNL d   1      -4.414 -10.103 -12.031 -0.25 -0.00    +0.000    46.816
ATOM     31  O   UNL d   1      -4.688 -11.651 -12.131 -0.43 -0.00    +0.000    46.816
ATOM     32  C   UNL d   1       0.157  -8.000 -13.826 -0.25 +0.00    +0.052    46.816
ATOM     33  C   UNL d   1       0.664  -6.993 -12.798 -0.32 +0.02    +0.115    46.816
ATOM     34  C   UNL d   1       1.948  -6.329 -13.229 -0.22 +0.07    +0.139    46.816
ATOM     35  O   UNL d   1       1.931  -5.168 -13.604 -0.21 -0.49    -0.650    46.816
ATOM     36  O   UNL d   1       3.119  -7.000 -13.236 -0.26 -0.56    -0.776    46.816
ATOM     37  H   UNL d   1       3.299  -7.707 -13.866 +0.03 +0.05    +0.167    46.816
ATOM     38  C   UNL d   1       0.058 -13.419 -14.496 -0.16 -0.00    +0.052    46.816
ATOM     39  C   UNL d   1       0.503 -12.920 -15.870 -0.05 -0.00    +0.115    46.816
ATOM     40  C   UNL d   1       1.336 -11.666 -15.785 -0.10 +0.00    +0.139    46.816
ATOM     41  O   UNL d   1       1.310 -10.989 -14.770 -0.55 -0.10    -0.650    46.816
ATOM     42  O   UNL d   1       2.151 -11.303 -16.794 +0.02 -0.01    -0.776    46.816
ATOM     43  H   UNL d   1       3.063 -11.033 -16.634 +0.02 +0.00    +0.167    46.816
ATOM     44  C   UNL d   1      -9.638  -7.769 -12.815 -0.16 -0.00    +0.004    46.816
ATOM     45  C   UNL d   1     -10.623  -8.388 -12.165 -0.25 -0.00    +0.012    46.816
ATOM     46  C   UNL d   1      -7.406 -15.637 -13.183 -0.26 +0.00    +0.004    46.816
ATOM     47  C   UNL d   1      -8.446 -16.361 -12.752 -0.28 +0.00    +0.012    46.816
TER
ENDMDL
MODEL       15
USER    Run = 15
USER    Cluster Rank = 13
USER    Number of conformations in this cluster = 1
USER  
USER    RMSD from reference structure       = 37.086 A
USER  
USER    Estimated Free Energy of Binding    =   -6.08 kcal/mol  [=(1)+(2)+(3)-(4)]
USER    Estimated Inhibition Constant, Ki   =   34.82 uM (micromolar)  [Temperature = 298.15 K]
USER    
USER    (1) Final Intermolecular Energy     =   -9.06 kcal/mol
USER        vdW + Hbond + desolv Energy     =   -6.72 kcal/mol
USER        Electrostatic Energy            =   -2.34 kcal/mol
USER    (2) Final Total Internal Energy     =   -0.50 kcal/mol
USER    (3) Torsional Free Energy           =   +2.98 kcal/mol
USER    (4) Unbound System's Energy  [=(2)] =   -0.50 kcal/mol
USER    
USER    
USER  
USER    DPF = D:/Protein_go_brrr/autodock/final/mut_Y35F/heme_O2/dock.dpf
USER    NEWDPF move	heme_O2_opt.pdbqt
USER    NEWDPF about	8.287000 34.468000 -0.670000
USER    NEWDPF tran0	21.455048 -1.890459 -8.474169
USER    NEWDPF axisangle0	0.461595 -0.252139 -0.850503 98.176409
USER    NEWDPF quaternion0	0.348836 -0.190547 -0.642741 0.654896
USER    NEWDPF dihe0	-103.12 -126.59 38.07 119.21 39.55 -137.35 11.39 86.96 171.84 -173.75 
USER  
USER                              x       y       z    vdW   Elec        q     RMS 
ATOM      1  C   UNL d   1      20.838  -3.820  -7.844 -0.11 +0.01    +0.064    37.086
ATOM      2  C   UNL d   1      22.878  -0.195  -5.550 -0.13 +0.00    +0.064    37.086
ATOM      3  C   UNL d   1      22.994   2.413  -9.585 -0.12 -0.03    +0.064    37.086
ATOM      4  C   UNL d   1      20.461  -1.126 -11.849 -0.17 -0.02    +0.064    37.086
ATOM      5  C   UNL d   1      21.382  -3.046  -6.890 -0.10 +0.00    +0.066    37.086
ATOM      6  C   UNL d   1      21.559  -3.447  -5.563 -0.10 -0.00    -0.021    37.086
ATOM      7  C   UNL d   1      22.110  -2.383  -4.888 -0.19 -0.00    -0.025    37.086
ATOM      8  C   UNL d   1      22.299  -1.378  -5.833 -0.16 +0.00    +0.066    37.086
ATOM      9  C   UNL d   1      22.399  -2.356  -3.403 -0.14 +0.01    +0.051    37.086
ATOM     10  C   UNL d   1      23.124   0.889  -6.503 -0.07 -0.00    +0.066    37.086
ATOM     11  C   UNL d   1      23.875   2.028  -6.195 -0.05 +0.00    -0.021    37.086
ATOM     12  C   UNL d   1      23.935   2.784  -7.351 -0.06 -0.00    +0.000    37.086
ATOM     13  C   UNL d   1      23.190   2.053  -8.317 -0.06 -0.02    +0.070    37.086
ATOM     14  C   UNL d   1      24.532   2.368  -4.862 -0.04 +0.00    +0.052    37.086
ATOM     15  C   UNL d   1      22.217   1.719 -10.583 -0.13 -0.02    +0.066    37.086
ATOM     16  C   UNL d   1      21.913   2.230 -11.845 -0.17 +0.01    -0.021    37.086
ATOM     17  C   UNL d   1      21.191   1.238 -12.508 -0.23 -0.00    +0.000    37.086
ATOM     18  C   UNL d   1      21.109   0.182 -11.590 -0.19 -0.02    +0.070    37.086
ATOM     19  C   UNL d   1      22.288   3.624 -12.280 -0.15 -0.04    +0.052    37.086
ATOM     20  C   UNL d   1      20.327  -2.144 -10.977 -0.18 -0.01    +0.066    37.086
ATOM     21  C   UNL d   1      19.722  -3.360 -11.283 -0.17 +0.00    -0.025    37.086
ATOM     22  C   UNL d   1      19.845  -4.149 -10.162 -0.11 +0.00    -0.021    37.086
ATOM     23  C   UNL d   1      20.506  -3.377  -9.203 -0.11 +0.00    +0.066    37.086
ATOM     24  C   UNL d   1      19.058  -3.747 -12.579 -0.18 -0.02    +0.051    37.086
ATOM     25  N   UNL d   1      21.790  -1.763  -7.051 -0.10 +0.01    -0.248    37.086
ATOM     26  N   UNL d   1      22.696   0.903  -7.791 -0.03 +0.03    -0.248    37.086
ATOM     27  N   UNL d   1      21.671   0.520 -10.402 -0.10 +0.06    -0.248    37.086
ATOM     28  N   UNL d   1      20.757  -2.143  -9.687 -0.11 +0.02    -0.248    37.086
ATOM     29 FE   UNL d   1      21.719  -0.629  -8.748 -0.04 -0.00    +0.000    37.086
ATOM     30  O   UNL d   1      20.762  -0.137  -7.624 -0.39 -0.00    +0.000    37.086
ATOM     31  O   UNL d   1      20.281  -0.114  -9.124 -0.44 -0.00    +0.000    37.086
ATOM     32  C   UNL d   1      21.103  -4.731  -4.918 -0.16 +0.02    +0.052    37.086
ATOM     33  C   UNL d   1      19.876  -4.544  -4.031 -0.24 +0.08    +0.115    37.086
ATOM     34  C   UNL d   1      19.560  -5.777  -3.221 -0.14 +0.12    +0.139    37.086
ATOM     35  O   UNL d   1      18.553  -6.420  -3.468 -0.05 -0.99    -0.650    37.086
ATOM     36  O   UNL d   1      20.354  -6.172  -2.204 +0.05 -0.27    -0.776    37.086
ATOM     37  H   UNL d   1      20.972  -6.906  -2.294 +0.02 +0.04    +0.167    37.086
ATOM     38  C   UNL d   1      19.297  -5.545 -10.007 -0.08 +0.00    +0.052    37.086
ATOM     39  C   UNL d   1      17.775  -5.562  -9.880 -0.13 +0.02    +0.115    37.086
ATOM     40  C   UNL d   1      17.317  -5.561  -8.443 -0.03 +0.12    +0.139    37.086
ATOM     41  O   UNL d   1      18.132  -5.414  -7.547 -0.20 -0.91    -0.650    37.086
ATOM     42  O   UNL d   1      16.011  -5.668  -8.129 -0.55 -0.71    -0.776    37.086
ATOM     43  H   UNL d   1      15.566  -5.006  -7.587 -0.22 +0.17    +0.167    37.086
ATOM     44  C   UNL d   1      24.679   4.102  -7.412 -0.07 -0.00    +0.004    37.086
ATOM     45  C   UNL d   1      24.372   5.183  -8.127 -0.10 -0.00    +0.012    37.086
ATOM     46  C   UNL d   1      20.544   1.229 -13.868 -0.30 -0.00    +0.004    37.086
ATOM     47  C   UNL d   1      20.885   0.506 -14.942 -0.18 -0.00    +0.012    37.086
TER
ENDMDL
MODEL        9
USER    Run = 9
USER    Cluster Rank = 14
USER    Number of conformations in this cluster = 2
USER  
USER    RMSD from reference structure       = 31.943 A
USER  
USER    Estimated Free Energy of Binding    =   -6.07 kcal/mol  [=(1)+(2)+(3)-(4)]
USER    Estimated Inhibition Constant, Ki   =   35.81 uM (micromolar)  [Temperature = 298.15 K]
USER    
USER    (1) Final Intermolecular Energy     =   -9.05 kcal/mol
USER        vdW + Hbond + desolv Energy     =   -4.71 kcal/mol
USER        Electrostatic Energy            =   -4.34 kcal/mol
USER    (2) Final Total Internal Energy     =   -1.49 kcal/mol
USER    (3) Torsional Free Energy           =   +2.98 kcal/mol
USER    (4) Unbound System's Energy  [=(2)] =   -1.49 kcal/mol
USER    
USER    
USER  
USER    DPF = D:/Protein_go_brrr/autodock/final/mut_Y35F/heme_O2/dock.dpf
USER    NEWDPF move	heme_O2_opt.pdbqt
USER    NEWDPF about	8.287000 34.468000 -0.670000
USER    NEWDPF tran0	-15.320244 9.646329 9.259219
USER    NEWDPF axisangle0	0.740604 0.671272 -0.030013 -116.037119
USER    NEWDPF quaternion0	0.628195 0.569386 -0.025457 -0.529645
USER    NEWDPF dihe0	80.22 19.67 56.40 120.51 11.40 -72.24 -136.96 -176.73 155.08 158.07 
USER  
USER                              x       y       z    vdW   Elec        q     RMS 
ATOM      1  C   UNL d   1     -15.985   9.041  11.180 -0.05 +0.06    +0.064    31.943
ATOM      2  C   UNL d   1     -15.481   6.704   7.076 -0.04 +0.04    +0.064    31.943
ATOM      3  C   UNL d   1     -13.970  10.702   4.879 -0.03 +0.01    +0.064    31.943
ATOM      4  C   UNL d   1     -14.029  13.006   9.210 -0.04 +0.02    +0.064    31.943
ATOM      5  C   UNL d   1     -15.970   8.078  10.244 -0.05 +0.06    +0.066    31.943
ATOM      6  C   UNL d   1     -16.366   6.758  10.471 -0.06 -0.02    -0.021    31.943
ATOM      7  C   UNL d   1     -16.180   6.070   9.295 -0.09 -0.02    -0.025    31.943
ATOM      8  C   UNL d   1     -15.720   7.001   8.368 -0.05 +0.05    +0.066    31.943
ATOM      9  C   UNL d   1     -16.412   4.586   9.114 -0.17 +0.05    +0.051    31.943
ATOM     10  C   UNL d   1     -15.020   7.642   6.052 -0.02 +0.03    +0.066    31.943
ATOM     11  C   UNL d   1     -14.945   7.321   4.692 -0.04 -0.01    -0.021    31.943
ATOM     12  C   UNL d   1     -14.528   8.467   4.039 -0.05 +0.00    +0.000    31.943
ATOM     13  C   UNL d   1     -14.357   9.440   5.063 -0.02 +0.02    +0.070    31.943
ATOM     14  C   UNL d   1     -15.282   5.986   4.039 -0.06 +0.01    +0.052    31.943
ATOM     15  C   UNL d   1     -13.751  11.708   5.891 -0.04 +0.01    +0.066    31.943
ATOM     16  C   UNL d   1     -13.188  12.961   5.652 -0.10 -0.00    -0.021    31.943
ATOM     17  C   UNL d   1     -13.194  13.635   6.872 -0.12 +0.00    +0.000    31.943
ATOM     18  C   UNL d   1     -13.769  12.732   7.777 -0.05 +0.01    +0.070    31.943
ATOM     19  C   UNL d   1     -12.650  13.377   4.306 -0.13 -0.00    +0.052    31.943
ATOM     20  C   UNL d   1     -14.539  12.148  10.114 -0.06 +0.03    +0.066    31.943
ATOM     21  C   UNL d   1     -14.777  12.470  11.447 -0.04 -0.01    -0.025    31.943
ATOM     22  C   UNL d   1     -15.360  11.360  12.018 -0.04 -0.01    -0.021    31.943
ATOM     23  C   UNL d   1     -15.439  10.392  11.011 -0.05 +0.06    +0.066    31.943
ATOM     24  C   UNL d   1     -14.462  13.768  12.143 -0.02 +0.01    +0.051    31.943
ATOM     25  N   UNL d   1     -15.529   8.223   8.970 -0.04 -0.24    -0.248    31.943
ATOM     26  N   UNL d   1     -14.654   8.929   6.284 -0.00 -0.11    -0.248    31.943
ATOM     27  N   UNL d   1     -14.032  11.541   7.180 -0.01 -0.08    -0.248    31.943
ATOM     28  N   UNL d   1     -14.898  10.860   9.868 -0.05 -0.22    -0.248    31.943
ATOM     29 FE   UNL d   1     -14.775   9.904   8.088 -0.01 +0.00    +0.000    31.943
ATOM     30  O   UNL d   1     -13.727   8.769   8.275 -0.53 +0.00    +0.000    31.943
ATOM     31  O   UNL d   1     -13.311  10.267   8.530 -0.60 +0.00    +0.000    31.943
ATOM     32  C   UNL d   1     -16.775   6.129  11.779 -0.06 +0.03    +0.052    31.943
ATOM     33  C   UNL d   1     -15.895   4.945  12.167 -0.13 +0.08    +0.115    31.943
ATOM     34  C   UNL d   1     -14.435   5.194  11.880 -0.19 +0.17    +0.139    31.943
ATOM     35  O   UNL d   1     -13.748   4.296  11.420 -0.36 -1.28    -0.650    31.943
ATOM     36  O   UNL d   1     -13.859   6.385  12.145 -0.01 -1.23    -0.776    31.943
ATOM     37  H   UNL d   1     -13.570   6.626  13.033 +0.03 +0.22    +0.167    31.943
ATOM     38  C   UNL d   1     -15.756  11.222  13.465 -0.02 +0.02    +0.052    31.943
ATOM     39  C   UNL d   1     -14.729  10.436  14.277 -0.04 +0.06    +0.115    31.943
ATOM     40  C   UNL d   1     -13.534  10.026  13.453 +0.01 +0.17    +0.139    31.943
ATOM     41  O   UNL d   1     -12.718  10.866  13.110 -0.73 -0.89    -0.650    31.943
ATOM     42  O   UNL d   1     -13.322   8.736  13.130 -0.05 -1.73    -0.776    31.943
ATOM     43  H   UNL d   1     -14.041   8.093  13.121 +0.01 +0.28    +0.167    31.943
ATOM     44  C   UNL d   1     -14.336   8.512   2.538 -0.07 +0.00    +0.004    31.943
ATOM     45  C   UNL d   1     -13.265   8.923   1.861 -0.11 +0.00    +0.012    31.943
ATOM     46  C   UNL d   1     -12.666  14.993   7.254 -0.11 -0.00    +0.004    31.943
ATOM     47  C   UNL d   1     -13.358  16.071   7.643 -0.15 -0.00    +0.012    31.943
TER
ENDMDL
MODEL       72
USER    Run = 72
USER    Cluster Rank = 15
USER    Number of conformations in this cluster = 3
USER  
USER    RMSD from reference structure       = 19.581 A
USER  
USER    Estimated Free Energy of Binding    =   -5.77 kcal/mol  [=(1)+(2)+(3)-(4)]
USER    Estimated Inhibition Constant, Ki   =   59.27 uM (micromolar)  [Temperature = 298.15 K]
USER    
USER    (1) Final Intermolecular Energy     =   -8.75 kcal/mol
USER        vdW + Hbond + desolv Energy     =   -6.97 kcal/mol
USER        Electrostatic Energy            =   -1.78 kcal/mol
USER    (2) Final Total Internal Energy     =   -2.05 kcal/mol
USER    (3) Torsional Free Energy           =   +2.98 kcal/mol
USER    (4) Unbound System's Energy  [=(2)] =   -2.05 kcal/mol
USER    
USER    
USER  
USER    DPF = D:/Protein_go_brrr/autodock/final/mut_Y35F/heme_O2/dock.dpf
USER    NEWDPF move	heme_O2_opt.pdbqt
USER    NEWDPF about	8.287000 34.468000 -0.670000
USER    NEWDPF tran0	11.164614 13.920283 7.719693
USER    NEWDPF axisangle0	0.442504 0.870957 -0.213599 -95.532415
USER    NEWDPF quaternion0	0.327634 0.644864 -0.158150 -0.672157
USER    NEWDPF dihe0	-67.18 142.31 44.99 48.12 -100.56 -10.60 -21.69 64.33 -170.22 176.44 
USER  
USER                              x       y       z    vdW   Elec        q     RMS 
ATOM      1  C   UNL d   1      10.715  14.486   9.714 -0.24 +0.02    +0.064    19.581
ATOM      2  C   UNL d   1      11.952  10.339   7.757 -0.09 +0.01    +0.064    19.581
ATOM      3  C   UNL d   1      12.134  12.347   3.395 -0.23 -0.01    +0.064    19.581
ATOM      4  C   UNL d   1      11.330  16.721   5.464 -0.12 -0.01    +0.064    19.581
ATOM      5  C   UNL d   1      11.038  13.194   9.538 -0.21 +0.02    +0.066    19.581
ATOM      6  C   UNL d   1      11.078  12.250  10.568 -0.20 -0.01    -0.021    19.581
ATOM      7  C   UNL d   1      11.478  11.058  10.009 -0.14 -0.01    -0.025    19.581
ATOM      8  C   UNL d   1      11.625  11.297   8.646 -0.12 +0.01    +0.066    19.581
ATOM      9  C   UNL d   1      11.726   9.781  10.781 -0.09 +0.02    +0.051    19.581
ATOM     10  C   UNL d   1      12.098  10.523   6.312 -0.10 +0.01    +0.066    19.581
ATOM     11  C   UNL d   1      12.277   9.464   5.416 -0.14 -0.00    -0.021    19.581
ATOM     12  C   UNL d   1      12.314  10.021   4.151 -0.25 +0.00    +0.000    19.581
ATOM     13  C   UNL d   1      12.164  11.421   4.353 -0.18 -0.00    +0.070    19.581
ATOM     14  C   UNL d   1      12.381   7.980   5.749 -0.17 +0.01    +0.052    19.581
ATOM     15  C   UNL d   1      12.020  13.775   3.560 -0.16 -0.01    +0.066    19.581
ATOM     16  C   UNL d   1      12.160  14.704   2.529 -0.20 +0.01    -0.021    19.581
ATOM     17  C   UNL d   1      11.935  15.959   3.096 -0.10 -0.00    +0.000    19.581
ATOM     18  C   UNL d   1      11.670  15.698   4.447 -0.10 -0.01    +0.070    19.581
ATOM     19  C   UNL d   1      12.545  14.320   1.123 -0.44 -0.02    +0.052    19.581
ATOM     20  C   UNL d   1      11.112  16.510   6.776 -0.14 -0.01    +0.066    19.581
ATOM     21  C   UNL d   1      10.778  17.512   7.683 -0.11 +0.00    -0.025    19.581
ATOM     22  C   UNL d   1      10.573  16.890   8.894 -0.19 +0.00    -0.021    19.581
ATOM     23  C   UNL d   1      10.807  15.527   8.684 -0.23 +0.00    +0.066    19.581
ATOM     24  C   UNL d   1      10.664  18.989   7.409 -0.14 -0.01    +0.051    19.581
ATOM     25  N   UNL d   1      11.417  12.628   8.366 -0.03 -0.03    -0.248    19.581
ATOM     26  N   UNL d   1      12.038  11.718   5.671 -0.06 -0.01    -0.248    19.581
ATOM     27  N   UNL d   1      11.799  14.376   4.726 -0.07 +0.02    -0.248    19.581
ATOM     28  N   UNL d   1      11.179  15.307   7.406 -0.14 +0.01    -0.248    19.581
ATOM     29 FE   UNL d   1      11.606  13.527   6.543 -0.04 +0.00    +0.000    19.581
ATOM     30  O   UNL d   1      12.958  13.060   7.156 -0.09 +0.00    +0.000    19.581
ATOM     31  O   UNL d   1      12.879  14.439   6.398 -0.08 -0.00    +0.000    19.581
ATOM     32  C   UNL d   1      10.882  12.484  12.043 -0.18 +0.04    +0.052    19.581
ATOM     33  C   UNL d   1      12.170  12.888  12.755 -0.10 +0.07    +0.115    19.581
ATOM     34  C   UNL d   1      11.908  13.657  14.026 -0.04 +0.15    +0.139    19.581
ATOM     35  O   UNL d   1      12.118  13.128  15.106 -0.14 -0.59    -0.650    19.581
ATOM     36  O   UNL d   1      11.418  14.914  13.999 -0.42 -1.24    -0.776    19.581
ATOM     37  H   UNL d   1      11.927  15.653  13.647 +0.01 +0.13    +0.167    19.581
ATOM     38  C   UNL d   1      10.233  17.580  10.190 -0.22 +0.01    +0.052    19.581
ATOM     39  C   UNL d   1      11.466  18.152  10.885 -0.08 +0.01    +0.115    19.581
ATOM     40  C   UNL d   1      11.722  17.510  12.226 -0.08 +0.04    +0.139    19.581
ATOM     41  O   UNL d   1      12.851  17.151  12.520 +0.01 -0.15    -0.650    19.581
ATOM     42  O   UNL d   1      10.733  17.370  13.130 -0.02 -0.40    -0.776    19.581
ATOM     43  H   UNL d   1      10.688  16.603  13.714 +0.01 +0.16    +0.167    19.581
ATOM     44  C   UNL d   1      12.489   9.177   2.906 -0.48 -0.00    +0.004    19.581
ATOM     45  C   UNL d   1      13.230   9.446   1.831 -0.40 -0.00    +0.012    19.581
ATOM     46  C   UNL d   1      12.006  17.339   2.499 -0.09 -0.00    +0.004    19.581
ATOM     47  C   UNL d   1      11.572  17.747   1.300 -0.13 -0.01    +0.012    19.581
TER
ENDMDL
MODEL       61
USER    Run = 61
USER    Cluster Rank = 16
USER    Number of conformations in this cluster = 1
USER  
USER    RMSD from reference structure       = 47.721 A
USER  
USER    Estimated Free Energy of Binding    =   -5.74 kcal/mol  [=(1)+(2)+(3)-(4)]
USER    Estimated Inhibition Constant, Ki   =   62.12 uM (micromolar)  [Temperature = 298.15 K]
USER    
USER    (1) Final Intermolecular Energy     =   -8.72 kcal/mol
USER        vdW + Hbond + desolv Energy     =   -7.93 kcal/mol
USER        Electrostatic Energy            =   -0.80 kcal/mol
USER    (2) Final Total Internal Energy     =   -0.27 kcal/mol
USER    (3) Torsional Free Energy           =   +2.98 kcal/mol
USER    (4) Unbound System's Energy  [=(2)] =   -0.27 kcal/mol
USER    
USER    
USER  
USER    DPF = D:/Protein_go_brrr/autodock/final/mut_Y35F/heme_O2/dock.dpf
USER    NEWDPF move	heme_O2_opt.pdbqt
USER    NEWDPF about	8.287000 34.468000 -0.670000
USER    NEWDPF tran0	-3.151297 -11.554672 -13.771301
USER    NEWDPF axisangle0	-0.505498 -0.477420 -0.718708 116.979474
USER    NEWDPF quaternion0	-0.430961 -0.407023 -0.612732 0.522651
USER    NEWDPF dihe0	-45.42 -89.44 88.70 -56.13 -143.33 27.45 -15.20 8.36 153.23 37.14 
USER  
USER                              x       y       z    vdW   Elec        q     RMS 
ATOM      1  C   UNL d   1      -3.935 -13.521 -13.630 -0.13 +0.00    +0.064    47.721
ATOM      2  C   UNL d   1       0.293 -11.843 -14.996 -0.13 +0.00    +0.064    47.721
ATOM      3  C   UNL d   1      -1.161  -7.321 -14.266 -0.13 +0.00    +0.064    47.721
ATOM      4  C   UNL d   1      -5.355  -9.058 -12.404 -0.16 -0.00    +0.064    47.721
ATOM      5  C   UNL d   1      -2.665 -13.434 -14.059 -0.14 +0.00    +0.066    47.721
ATOM      6  C   UNL d   1      -1.880 -14.535 -14.410 -0.14 -0.00    -0.021    47.721
ATOM      7  C   UNL d   1      -0.642 -14.054 -14.765 -0.10 -0.00    -0.025    47.721
ATOM      8  C   UNL d   1      -0.720 -12.668 -14.666 -0.12 -0.00    +0.066    47.721
ATOM      9  C   UNL d   1       0.545 -14.913 -15.144 -0.07 +0.00    +0.051    47.721
ATOM     10  C   UNL d   1       0.264 -10.381 -14.936 -0.14 +0.00    +0.066    47.721
ATOM     11  C   UNL d   1       1.284  -9.569 -15.444 -0.12 -0.00    -0.021    47.721
ATOM     12  C   UNL d   1       0.875  -8.261 -15.259 -0.13 +0.00    +0.000    47.721
ATOM     13  C   UNL d   1      -0.395  -8.352 -14.623 -0.13 +0.00    +0.070    47.721
ATOM     14  C   UNL d   1       2.582 -10.022 -16.102 -0.11 +0.00    +0.052    47.721
ATOM     15  C   UNL d   1      -2.435  -7.370 -13.590 -0.14 +0.00    +0.066    47.721
ATOM     16  C   UNL d   1      -3.111  -6.255 -13.096 -0.17 -0.00    -0.021    47.721
ATOM     17  C   UNL d   1      -4.309  -6.725 -12.560 -0.17 -0.00    +0.000    47.721
ATOM     18  C   UNL d   1      -4.275  -8.111 -12.771 -0.10 -0.00    +0.070    47.721
ATOM     19  C   UNL d   1      -2.535  -4.862 -13.130 -0.14 +0.00    +0.052    47.721
ATOM     20  C   UNL d   1      -5.336 -10.396 -12.553 -0.20 -0.01    +0.066    47.721
ATOM     21  C   UNL d   1      -6.391 -11.235 -12.204 -0.28 +0.00    -0.025    47.721
ATOM     22  C   UNL d   1      -6.015 -12.508 -12.571 -0.27 +0.00    -0.021    47.721
ATOM     23  C   UNL d   1      -4.731 -12.400 -13.116 -0.21 -0.01    +0.066    47.721
ATOM     24  C   UNL d   1      -7.690 -10.843 -11.550 -0.27 -0.01    +0.051    47.721
ATOM     25  N   UNL d   1      -1.946 -12.290 -14.169 -0.10 +0.01    -0.248    47.721
ATOM     26  N   UNL d   1      -0.757  -9.645 -14.426 -0.11 -0.00    -0.248    47.721
ATOM     27  N   UNL d   1      -3.098  -8.493 -13.329 -0.09 +0.00    -0.248    47.721
ATOM     28  N   UNL d   1      -4.305 -11.122 -13.061 -0.13 +0.02    -0.248    47.721
ATOM     29 FE   UNL d   1      -2.545 -10.386 -13.738 -0.04 -0.00    +0.000    47.721
ATOM     30  O   UNL d   1      -1.447 -10.932 -12.778 -0.35 -0.00    +0.000    47.721
ATOM     31  O   UNL d   1      -2.630 -10.066 -12.200 -0.06 -0.00    +0.000    47.721
ATOM     32  C   UNL d   1      -2.232 -15.996 -14.287 -0.21 +0.01    +0.052    47.721
ATOM     33  C   UNL d   1      -1.232 -16.776 -13.439 -0.19 +0.03    +0.115    47.721
ATOM     34  C   UNL d   1      -1.785 -18.100 -12.972 -0.13 +0.06    +0.139    47.721
ATOM     35  O   UNL d   1      -2.036 -18.971 -13.789 -0.07 -0.38    -0.650    47.721
ATOM     36  O   UNL d   1      -2.036 -18.336 -11.667 -0.59 -0.36    -0.776    47.721
ATOM     37  H   UNL d   1      -1.410 -18.095 -10.975 +0.04 +0.03    +0.167    47.721
ATOM     38  C   UNL d   1      -6.822 -13.761 -12.349 -0.36 -0.01    +0.052    47.721
ATOM     39  C   UNL d   1      -6.769 -14.707 -13.547 -0.24 +0.01    +0.115    47.721
ATOM     40  C   UNL d   1      -7.710 -15.876 -13.399 -0.20 +0.02    +0.139    47.721
ATOM     41  O   UNL d   1      -7.885 -16.636 -14.339 -0.03 -0.18    -0.650    47.721
ATOM     42  O   UNL d   1      -8.327 -16.130 -12.229 -0.00 -0.06    -0.776    47.721
ATOM     43  H   UNL d   1      -7.908 -16.664 -11.543 -0.35 +0.00    +0.167    47.721
ATOM     44  C   UNL d   1       1.722  -7.085 -15.695 -0.10 +0.00    +0.004    47.721
ATOM     45  C   UNL d   1       2.572  -6.370 -14.959 -0.18 +0.00    +0.012    47.721
ATOM     46  C   UNL d   1      -5.418  -6.007 -11.837 -0.28 -0.00    +0.004    47.721
ATOM     47  C   UNL d   1      -5.360  -5.357 -10.668 -0.44 -0.00    +0.012    47.721
TER
ENDMDL
MODEL       59
USER    Run = 59
USER    Cluster Rank = 17
USER    Number of conformations in this cluster = 1
USER  
USER    RMSD from reference structure       = 16.328 A
USER  
USER    Estimated Free Energy of Binding    =   -5.71 kcal/mol  [=(1)+(2)+(3)-(4)]
USER    Estimated Inhibition Constant, Ki   =   64.83 uM (micromolar)  [Temperature = 298.15 K]
USER    
USER    (1) Final Intermolecular Energy     =   -8.70 kcal/mol
USER        vdW + Hbond + desolv Energy     =   -6.81 kcal/mol
USER        Electrostatic Energy            =   -1.88 kcal/mol
USER    (2) Final Total Internal Energy     =   -1.46 kcal/mol
USER    (3) Torsional Free Energy           =   +2.98 kcal/mol
USER    (4) Unbound System's Energy  [=(2)] =   -1.46 kcal/mol
USER    
USER    
USER  
USER    DPF = D:/Protein_go_brrr/autodock/final/mut_Y35F/heme_O2/dock.dpf
USER    NEWDPF move	heme_O2_opt.pdbqt
USER    NEWDPF about	8.287000 34.468000 -0.670000
USER    NEWDPF tran0	10.028628 17.651215 7.688672
USER    NEWDPF axisangle0	-0.391806 -0.919597 -0.028789 131.629368
USER    NEWDPF quaternion0	-0.357415 -0.838880 -0.026262 0.409689
USER    NEWDPF dihe0	-85.12 -2.09 -9.78 118.69 69.99 -72.61 9.27 -13.25 1.89 23.11 
USER  
USER                              x       y       z    vdW   Elec        q     RMS 
ATOM      1  C   UNL d   1      10.576  17.136   9.672 -0.20 +0.00    +0.064    16.328
ATOM      2  C   UNL d   1      11.137  14.917   5.510 -0.12 -0.01    +0.064    16.328
ATOM      3  C   UNL d   1       8.877  18.476   3.203 -0.23 -0.01    +0.064    16.328
ATOM      4  C   UNL d   1       8.717  20.992   7.412 -0.12 -0.01    +0.064    16.328
ATOM      5  C   UNL d   1      10.915  16.243   8.728 -0.20 -0.00    +0.066    16.328
ATOM      6  C   UNL d   1      11.574  15.038   8.990 -0.19 -0.00    -0.021    16.328
ATOM      7  C   UNL d   1      11.775  14.415   7.781 -0.13 -0.00    -0.025    16.328
ATOM      8  C   UNL d   1      11.191  15.234   6.818 -0.14 -0.01    +0.066    16.328
ATOM      9  C   UNL d   1      12.523  13.113   7.592 -0.10 +0.00    +0.051    16.328
ATOM     10  C   UNL d   1      10.518  15.724   4.458 -0.22 -0.01    +0.066    16.328
ATOM     11  C   UNL d   1      10.345  15.273   3.144 -0.27 +0.00    -0.021    16.328
ATOM     12  C   UNL d   1       9.679  16.279   2.468 -0.28 -0.00    +0.000    16.328
ATOM     13  C   UNL d   1       9.490  17.313   3.425 -0.22 -0.02    +0.070    16.328
ATOM     14  C   UNL d   1      10.773  13.930   2.566 -0.35 -0.01    +0.052    16.328
ATOM     15  C   UNL d   1       8.696  19.563   4.135 -0.13 -0.01    +0.066    16.328
ATOM     16  C   UNL d   1       8.192  20.819   3.797 -0.08 +0.00    -0.021    16.328
ATOM     17  C   UNL d   1       8.138  21.554   4.981 -0.05 -0.00    +0.000    16.328
ATOM     18  C   UNL d   1       8.618  20.679   5.967 -0.04 -0.01    +0.070    16.328
ATOM     19  C   UNL d   1       7.863  21.219   2.381 -0.09 -0.01    +0.052    16.328
ATOM     20  C   UNL d   1       9.212  20.193   8.376 -0.18 -0.01    +0.066    16.328
ATOM     21  C   UNL d   1       9.263  20.536   9.724 -0.12 +0.00    -0.025    16.328
ATOM     22  C   UNL d   1       9.765  19.439  10.387 -0.15 +0.00    -0.021    16.328
ATOM     23  C   UNL d   1      10.019  18.469   9.413 -0.18 -0.00    +0.066    16.328
ATOM     24  C   UNL d   1       8.857  21.846  10.348 -0.06 -0.00    +0.051    16.328
ATOM     25  N   UNL d   1      10.719  16.390   7.395 -0.12 +0.05    -0.248    16.328
ATOM     26  N   UNL d   1      10.007  16.969   4.632 -0.16 +0.06    -0.248    16.328
ATOM     27  N   UNL d   1       9.021  19.502   5.423 -0.10 +0.05    -0.248    16.328
ATOM     28  N   UNL d   1       9.724  18.948   8.187 -0.13 +0.05    -0.248    16.328
ATOM     29 FE   UNL d   1       9.864  17.968   6.421 -0.05 -0.00    +0.000    16.328
ATOM     30  O   UNL d   1      11.385  17.803   6.135 -0.12 -0.00    +0.000    16.328
ATOM     31  O   UNL d   1      10.778  19.244   6.326 -0.11 -0.00    +0.000    16.328
ATOM     32  C   UNL d   1      12.117  14.552  10.309 -0.13 +0.01    +0.052    16.328
ATOM     33  C   UNL d   1      11.069  13.832  11.153 -0.13 +0.06    +0.115    16.328
ATOM     34  C   UNL d   1      11.573  13.500  12.535 -0.12 +0.11    +0.139    16.328
ATOM     35  O   UNL d   1      12.274  12.514  12.701 -0.01 -0.34    -0.650    16.328
ATOM     36  O   UNL d   1      11.244  14.254  13.604 -0.43 -1.37    -0.776    16.328
ATOM     37  H   UNL d   1      11.736  15.050  13.838 +0.01 +0.19    +0.167    16.328
ATOM     38  C   UNL d   1      10.042  19.357  11.866 -0.11 +0.00    +0.052    16.328
ATOM     39  C   UNL d   1       9.334  18.176  12.527 -0.13 +0.04    +0.115    16.328
ATOM     40  C   UNL d   1       9.870  17.881  13.906 -0.08 +0.07    +0.139    16.328
ATOM     41  O   UNL d   1       9.619  18.640  14.828 -0.01 -0.22    -0.650    16.328
ATOM     42  O   UNL d   1      10.580  16.763  14.151 -0.04 -0.73    -0.776    16.328
ATOM     43  H   UNL d   1      10.775  16.126  13.454 +0.01 +0.18    +0.167    16.328
ATOM     44  C   UNL d   1       9.303  16.152   1.006 -0.41 -0.00    +0.004    16.328
ATOM     45  C   UNL d   1       8.454  16.907   0.311 -0.39 -0.00    +0.012    16.328
ATOM     46  C   UNL d   1       7.740  22.982   5.240 -0.10 -0.00    +0.004    16.328
ATOM     47  C   UNL d   1       6.668  23.437   5.901 -0.11 -0.00    +0.012    16.328
TER
ENDMDL
MODEL       50
USER    Run = 50
USER    Cluster Rank = 18
USER    Number of conformations in this cluster = 1
USER  
USER    RMSD from reference structure       = 37.097 A
USER  
USER    Estimated Free Energy of Binding    =   -5.66 kcal/mol  [=(1)+(2)+(3)-(4)]
USER    Estimated Inhibition Constant, Ki   =   71.48 uM (micromolar)  [Temperature = 298.15 K]
USER    
USER    (1) Final Intermolecular Energy     =   -8.64 kcal/mol
USER        vdW + Hbond + desolv Energy     =   -5.34 kcal/mol
USER        Electrostatic Energy            =   -3.30 kcal/mol
USER    (2) Final Total Internal Energy     =   -0.53 kcal/mol
USER    (3) Torsional Free Energy           =   +2.98 kcal/mol
USER    (4) Unbound System's Energy  [=(2)] =   -0.53 kcal/mol
USER    
USER    
USER  
USER    DPF = D:/Protein_go_brrr/autodock/final/mut_Y35F/heme_O2/dock.dpf
USER    NEWDPF move	heme_O2_opt.pdbqt
USER    NEWDPF about	8.287000 34.468000 -0.670000
USER    NEWDPF tran0	-16.956545 4.969513 8.402799
USER    NEWDPF axisangle0	0.271812 0.492535 -0.826757 -148.097063
USER    NEWDPF quaternion0	0.261346 0.473570 -0.794923 -0.274823
USER    NEWDPF dihe0	-74.84 -99.09 57.40 -104.53 -151.43 29.88 80.51 -115.66 54.16 119.70 
USER  
USER                              x       y       z    vdW   Elec        q     RMS 
ATOM      1  C   UNL d   1     -15.088   5.800   8.968 -0.13 +0.09    +0.064    37.097
ATOM      2  C   UNL d   1     -18.367   3.346  11.373 -0.12 +0.02    +0.064    37.097
ATOM      3  C   UNL d   1     -21.167   3.089   7.476 -0.09 +0.01    +0.064    37.097
ATOM      4  C   UNL d   1     -17.588   5.198   4.866 -0.01 +0.01    +0.064    37.097
ATOM      5  C   UNL d   1     -15.751   5.152   9.940 -0.14 +0.08    +0.066    37.097
ATOM      6  C   UNL d   1     -15.284   5.018  11.251 -0.18 -0.02    -0.021    37.097
ATOM      7  C   UNL d   1     -16.212   4.271  11.937 -0.15 -0.02    -0.025    37.097
ATOM      8  C   UNL d   1     -17.244   4.009  11.039 -0.14 +0.04    +0.066    37.097
ATOM      9  C   UNL d   1     -16.070   3.822  13.375 +0.04 +0.02    +0.051    37.097
ATOM     10  C   UNL d   1     -19.492   3.061  10.482 -0.14 +0.01    +0.066    37.097
ATOM     11  C   UNL d   1     -20.703   2.514  10.921 -0.11 -0.00    -0.021    37.097
ATOM     12  C   UNL d   1     -21.530   2.448   9.815 -0.09 +0.00    +0.000    37.097
ATOM     13  C   UNL d   1     -20.755   2.960   8.737 -0.10 +0.01    +0.070    37.097
ATOM     14  C   UNL d   1     -21.065   2.096  12.342 -0.07 +0.00    +0.052    37.097
ATOM     15  C   UNL d   1     -20.403   3.569   6.349 -0.07 +0.01    +0.066    37.097
ATOM     16  C   UNL d   1     -20.836   3.526   5.024 -0.04 -0.00    -0.021    37.097
ATOM     17  C   UNL d   1     -19.831   4.121   4.262 -0.03 +0.00    +0.000    37.097
ATOM     18  C   UNL d   1     -18.848   4.489   5.191 -0.03 +0.01    +0.070    37.097
ATOM     19  C   UNL d   1     -22.131   2.878   4.603 -0.02 +0.00    +0.052    37.097
ATOM     20  C   UNL d   1     -16.605   5.527   5.726 -0.03 +0.02    +0.066    37.097
ATOM     21  C   UNL d   1     -15.448   6.211   5.364 -0.04 -0.01    -0.025    37.097
ATOM     22  C   UNL d   1     -14.736   6.415   6.525 -0.08 -0.01    -0.021    37.097
ATOM     23  C   UNL d   1     -15.480   5.830   7.554 -0.09 +0.06    +0.066    37.097
ATOM     24  C   UNL d   1     -15.040   6.644   3.979 -0.06 +0.01    +0.051    37.097
ATOM     25  N   UNL d   1     -16.928   4.496   9.791 -0.11 -0.18    -0.248    37.097
ATOM     26  N   UNL d   1     -19.516   3.326   9.150 -0.07 -0.08    -0.248    37.097
ATOM     27  N   UNL d   1     -19.178   4.079   6.443 -0.05 -0.05    -0.248    37.097
ATOM     28  N   UNL d   1     -16.593   5.252   7.057 -0.04 -0.14    -0.248    37.097
ATOM     29 FE   UNL d   1     -18.045   4.296   8.094 -0.03 +0.00    +0.000    37.097
ATOM     30  O   UNL d   1     -17.416   2.962   8.593 -0.68 +0.00    +0.000    37.097
ATOM     31  O   UNL d   1     -17.460   3.275   7.050 -0.38 +0.00    +0.000    37.097
ATOM     32  C   UNL d   1     -13.954   5.457  11.806 -0.21 +0.07    +0.052    37.097
ATOM     33  C   UNL d   1     -14.070   6.101  13.184 -0.13 +0.11    +0.115    37.097
ATOM     34  C   UNL d   1     -13.992   7.607  13.123 +0.24 +0.21    +0.139    37.097
ATOM     35  O   UNL d   1     -14.792   8.225  12.439 -0.45 -1.05    -0.650    37.097
ATOM     36  O   UNL d   1     -13.037   8.289  13.787 -0.30 -1.04    -0.776    37.097
ATOM     37  H   UNL d   1     -13.067   8.410  14.743 +0.02 +0.12    +0.167    37.097
ATOM     38  C   UNL d   1     -13.387   7.079   6.622 -0.16 +0.04    +0.052    37.097
ATOM     39  C   UNL d   1     -12.454   6.360   7.593 -0.22 +0.15    +0.115    37.097
ATOM     40  C   UNL d   1     -12.134   4.954   7.150 -0.23 +0.22    +0.139    37.097
ATOM     41  O   UNL d   1     -11.319   4.292   7.774 -0.30 -1.30    -0.650    37.097
ATOM     42  O   UNL d   1     -12.770   4.392   6.104 -0.10 -0.95    -0.776    37.097
ATOM     43  H   UNL d   1     -13.534   3.816   6.228 -0.08 +0.22    +0.167    37.097
ATOM     44  C   UNL d   1     -22.944   1.912   9.899 -0.04 +0.00    +0.004    37.097
ATOM     45  C   UNL d   1     -23.501   0.954   9.159 -0.04 +0.00    +0.012    37.097
ATOM     46  C   UNL d   1     -19.702   4.311   2.774 -0.01 +0.00    +0.004    37.097
ATOM     47  C   UNL d   1     -18.837   3.725   1.936 -0.01 +0.00    +0.012    37.097
TER
ENDMDL
MODEL       84
USER    Run = 84
USER    Cluster Rank = 19
USER    Number of conformations in this cluster = 2
USER  
USER    RMSD from reference structure       = 32.401 A
USER  
USER    Estimated Free Energy of Binding    =   -5.64 kcal/mol  [=(1)+(2)+(3)-(4)]
USER    Estimated Inhibition Constant, Ki   =   72.81 uM (micromolar)  [Temperature = 298.15 K]
USER    
USER    (1) Final Intermolecular Energy     =   -8.63 kcal/mol
USER        vdW + Hbond + desolv Energy     =   -5.75 kcal/mol
USER        Electrostatic Energy            =   -2.87 kcal/mol
USER    (2) Final Total Internal Energy     =   -1.58 kcal/mol
USER    (3) Torsional Free Energy           =   +2.98 kcal/mol
USER    (4) Unbound System's Energy  [=(2)] =   -1.58 kcal/mol
USER    
USER    
USER  
USER    DPF = D:/Protein_go_brrr/autodock/final/mut_Y35F/heme_O2/dock.dpf
USER    NEWDPF move	heme_O2_opt.pdbqt
USER    NEWDPF about	8.287000 34.468000 -0.670000
USER    NEWDPF tran0	11.123178 1.054663 11.330963
USER    NEWDPF axisangle0	-0.422415 -0.070766 0.903636 112.017320
USER    NEWDPF quaternion0	-0.350234 -0.058674 0.749224 0.559068
USER    NEWDPF dihe0	170.75 -19.93 61.98 141.48 -120.75 155.26 131.92 178.71 22.15 1.97 
USER  
USER                              x       y       z    vdW   Elec        q     RMS 
ATOM      1  C   UNL d   1      12.262   2.706  12.020 -0.05 +0.06    +0.064    32.401
ATOM      2  C   UNL d   1       8.011   0.996  13.270 -0.06 +0.01    +0.064    32.401
ATOM      3  C   UNL d   1       8.335  -2.479   9.967 -0.30 +0.00    +0.064    32.401
ATOM      4  C   UNL d   1      12.917  -1.019   8.998 -0.15 +0.02    +0.064    32.401
ATOM      5  C   UNL d   1      11.080   2.524  12.630 -0.07 +0.05    +0.066    32.401
ATOM      6  C   UNL d   1      10.589   3.348  13.647 -0.06 -0.01    -0.021    32.401
ATOM      7  C   UNL d   1       9.378   2.828  14.040 -0.05 -0.01    -0.025    32.401
ATOM      8  C   UNL d   1       9.140   1.729  13.219 -0.07 +0.03    +0.066    32.401
ATOM      9  C   UNL d   1       8.531   3.367  15.172 -0.02 +0.01    +0.051    32.401
ATOM     10  C   UNL d   1       7.695  -0.152  12.420 -0.09 +0.01    +0.066    32.401
ATOM     11  C   UNL d   1       6.442  -0.775  12.402 -0.12 +0.00    -0.021    32.401
ATOM     12  C   UNL d   1       6.510  -1.769  11.443 -0.23 -0.00    +0.000    32.401
ATOM     13  C   UNL d   1       7.834  -1.702  10.927 -0.19 -0.00    +0.070    32.401
ATOM     14  C   UNL d   1       5.223  -0.420  13.245 -0.13 -0.02    +0.052    32.401
ATOM     15  C   UNL d   1       9.679  -2.467   9.442 -0.20 +0.01    +0.066    32.401
ATOM     16  C   UNL d   1      10.190  -3.414   8.554 -0.30 -0.00    -0.021    32.401
ATOM     17  C   UNL d   1      11.496  -3.018   8.264 -0.32 +0.00    +0.000    32.401
ATOM     18  C   UNL d   1      11.685  -1.843   9.005 -0.18 +0.02    +0.070    32.401
ATOM     19  C   UNL d   1       9.414  -4.628   8.111 -0.33 +0.00    +0.052    32.401
ATOM     20  C   UNL d   1      13.148   0.089   9.729 -0.12 +0.03    +0.066    32.401
ATOM     21  C   UNL d   1      14.322   0.834   9.666 -0.07 -0.01    -0.025    32.401
ATOM     22  C   UNL d   1      14.143   1.915  10.500 -0.06 -0.01    -0.021    32.401
ATOM     23  C   UNL d   1      12.867   1.779  11.057 -0.09 +0.05    +0.066    32.401
ATOM     24  C   UNL d   1      15.554   0.528   8.855 -0.04 +0.01    +0.051    32.401
ATOM     25  N   UNL d   1      10.219   1.504  12.395 -0.06 -0.16    -0.248    32.401
ATOM     26  N   UNL d   1       8.549  -0.719  11.530 -0.09 -0.05    -0.248    32.401
ATOM     27  N   UNL d   1      10.599  -1.565   9.771 -0.12 -0.07    -0.248    32.401
ATOM     28  N   UNL d   1      12.284   0.644  10.619 -0.09 -0.15    -0.248    32.401
ATOM     29 FE   UNL d   1      10.431  -0.035  11.070 -0.03 +0.00    +0.000    32.401
ATOM     30  O   UNL d   1      10.481  -0.479  12.561 -0.07 +0.00    +0.000    32.401
ATOM     31  O   UNL d   1      11.459  -1.138  11.516 -0.09 +0.00    +0.000    32.401
ATOM     32  C   UNL d   1      11.289   4.499  14.322 -0.02 +0.02    +0.052    32.401
ATOM     33  C   UNL d   1      10.750   5.858  13.886 -0.03 +0.05    +0.115    32.401
ATOM     34  C   UNL d   1      10.684   5.996  12.386 -0.05 +0.12    +0.139    32.401
ATOM     35  O   UNL d   1       9.682   5.633  11.790 -0.53 -0.97    -0.650    32.401
ATOM     36  O   UNL d   1      11.721   6.487  11.678 +0.00 -0.63    -0.776    32.401
ATOM     37  H   UNL d   1      11.740   6.462  10.714 +0.01 +0.18    +0.167    32.401
ATOM     38  C   UNL d   1      15.168   2.979  10.792 -0.02 +0.02    +0.052    32.401
ATOM     39  C   UNL d   1      14.876   4.286  10.057 -0.02 +0.05    +0.115    32.401
ATOM     40  C   UNL d   1      13.662   4.187   9.166 -0.05 +0.14    +0.139    32.401
ATOM     41  O   UNL d   1      13.642   3.373   8.258 -0.08 -0.54    -0.650    32.401
ATOM     42  O   UNL d   1      12.573   4.949   9.387 -0.09 -1.38    -0.776    32.401
ATOM     43  H   UNL d   1      12.429   5.389  10.233 +0.01 +0.26    +0.167    32.401
ATOM     44  C   UNL d   1       5.330  -2.664  11.127 -0.28 -0.00    +0.004    32.401
ATOM     45  C   UNL d   1       5.272  -3.994  11.186 -0.22 -0.01    +0.012    32.401
ATOM     46  C   UNL d   1      12.561  -3.668   7.422 -0.20 +0.00    +0.004    32.401
ATOM     47  C   UNL d   1      13.365  -3.095   6.517 -0.34 +0.00    +0.012    32.401
TER
ENDMDL
MODEL       27
USER    Run = 27
USER    Cluster Rank = 20
USER    Number of conformations in this cluster = 2
USER  
USER    RMSD from reference structure       = 39.333 A
USER  
USER    Estimated Free Energy of Binding    =   -5.58 kcal/mol  [=(1)+(2)+(3)-(4)]
USER    Estimated Inhibition Constant, Ki   =   80.61 uM (micromolar)  [Temperature = 298.15 K]
USER    
USER    (1) Final Intermolecular Energy     =   -8.57 kcal/mol
USER        vdW + Hbond + desolv Energy     =   -7.75 kcal/mol
USER        Electrostatic Energy            =   -0.82 kcal/mol
USER    (2) Final Total Internal Energy     =   -0.55 kcal/mol
USER    (3) Torsional Free Energy           =   +2.98 kcal/mol
USER    (4) Unbound System's Energy  [=(2)] =   -0.55 kcal/mol
USER    
USER    
USER  
USER    DPF = D:/Protein_go_brrr/autodock/final/mut_Y35F/heme_O2/dock.dpf
USER    NEWDPF move	heme_O2_opt.pdbqt
USER    NEWDPF about	8.287000 34.468000 -0.670000
USER    NEWDPF tran0	-15.131170 -0.480981 -0.734733
USER    NEWDPF axisangle0	0.175686 -0.966288 -0.188209 -154.934131
USER    NEWDPF quaternion0	0.171500 -0.943262 -0.183724 -0.217001
USER    NEWDPF dihe0	-51.27 113.84 -45.34 -113.96 19.72 -66.39 33.75 -67.16 152.08 -169.01 
USER  
USER                              x       y       z    vdW   Elec        q     RMS 
ATOM      1  C   UNL d   1     -13.316   0.581  -0.458 -0.12 +0.01    +0.064    39.333
ATOM      2  C   UNL d   1     -15.398  -1.266  -4.307 -0.11 +0.01    +0.064    39.333
ATOM      3  C   UNL d   1     -19.046  -2.921  -1.653 -0.05 +0.03    +0.064    39.333
ATOM      4  C   UNL d   1     -17.154  -0.612   2.240 -0.26 +0.02    +0.064    39.333
ATOM      5  C   UNL d   1     -13.585   0.216  -1.722 -0.24 +0.01    +0.066    39.333
ATOM      6  C   UNL d   1     -12.750   0.485  -2.810 -0.31 -0.00    -0.021    39.333
ATOM      7  C   UNL d   1     -13.373  -0.011  -3.931 -0.23 -0.00    -0.025    39.333
ATOM      8  C   UNL d   1     -14.548  -0.613  -3.491 -0.18 +0.01    +0.066    39.333
ATOM      9  C   UNL d   1     -12.851   0.130  -5.345 -0.18 +0.00    +0.051    39.333
ATOM     10  C   UNL d   1     -16.633  -1.936  -3.900 -0.09 +0.01    +0.066    39.333
ATOM     11  C   UNL d   1     -17.393  -2.738  -4.759 -0.06 -0.00    -0.021    39.333
ATOM     12  C   UNL d   1     -18.440  -3.239  -4.008 -0.06 +0.00    +0.000    39.333
ATOM     13  C   UNL d   1     -18.262  -2.693  -2.706 -0.06 +0.02    +0.070    39.333
ATOM     14  C   UNL d   1     -17.116  -3.036  -6.228 -0.04 +0.00    +0.052    39.333
ATOM     15  C   UNL d   1     -18.921  -2.360  -0.329 -0.06 +0.03    +0.066    39.333
ATOM     16  C   UNL d   1     -19.866  -2.508   0.685 -0.10 -0.01    -0.021    39.333
ATOM     17  C   UNL d   1     -19.349  -1.857   1.805 -0.17 +0.00    +0.000    39.333
ATOM     18  C   UNL d   1     -18.109  -1.356   1.385 -0.19 +0.03    +0.070    39.333
ATOM     19  C   UNL d   1     -21.189  -3.203   0.481 -0.05 +0.01    +0.052    39.333
ATOM     20  C   UNL d   1     -15.977  -0.080   1.858 -0.24 +0.02    +0.066    39.333
ATOM     21  C   UNL d   1     -15.111   0.595   2.714 -0.32 -0.01    -0.025    39.333
ATOM     22  C   UNL d   1     -14.000   0.918   1.969 -0.33 -0.00    -0.021    39.333
ATOM     23  C   UNL d   1     -14.238   0.443   0.676 -0.23 +0.01    +0.066    39.333
ATOM     24  C   UNL d   1     -15.335   0.917   4.169 -0.33 +0.02    +0.051    39.333
ATOM     25  N   UNL d   1     -14.710  -0.416  -2.139 -0.14 -0.04    -0.248    39.333
ATOM     26  N   UNL d   1     -17.164  -1.898  -2.651 -0.06 -0.07    -0.248    39.333
ATOM     27  N   UNL d   1     -17.900  -1.605   0.067 -0.08 -0.12    -0.248    39.333
ATOM     28  N   UNL d   1     -15.460  -0.124   0.602 -0.12 -0.06    -0.248    39.333
ATOM     29 FE   UNL d   1     -16.308  -1.005  -1.011 -0.05 +0.00    +0.000    39.333
ATOM     30  O   UNL d   1     -16.634   0.142  -2.012 -0.09 +0.00    +0.000    39.333
ATOM     31  O   UNL d   1     -17.253   0.170  -0.564 -0.10 +0.00    +0.000    39.333
ATOM     32  C   UNL d   1     -11.482   1.299  -2.820 -0.17 -0.00    +0.052    39.333
ATOM     33  C   UNL d   1     -11.521   2.444  -3.828 -0.17 +0.00    +0.115    39.333
ATOM     34  C   UNL d   1     -10.159   2.756  -4.397 -0.23 +0.00    +0.139    39.333
ATOM     35  O   UNL d   1      -9.768   3.912  -4.426 -0.02 -0.14    -0.650    39.333
ATOM     36  O   UNL d   1      -9.370   1.787  -4.904 +0.08 +0.17    -0.776    39.333
ATOM     37  H   UNL d   1      -9.171   0.981  -4.413 -0.36 -0.09    +0.167    39.333
ATOM     38  C   UNL d   1     -12.808   1.698   2.462 -0.45 +0.01    +0.052    39.333
ATOM     39  C   UNL d   1     -13.155   3.150   2.781 -0.27 +0.03    +0.115    39.333
ATOM     40  C   UNL d   1     -13.081   3.449   4.258 -0.28 +0.07    +0.139    39.333
ATOM     41  O   UNL d   1     -11.995   3.625   4.787 -0.49 -0.47    -0.650    39.333
ATOM     42  O   UNL d   1     -14.199   3.578   4.998 +0.06 -0.41    -0.776    39.333
ATOM     43  H   UNL d   1     -14.399   2.970   5.719 -0.39 +0.08    +0.167    39.333
ATOM     44  C   UNL d   1     -19.482  -4.166  -4.598 -0.03 +0.00    +0.004    39.333
ATOM     45  C   UNL d   1     -19.911  -5.330  -4.113 -0.03 +0.00    +0.012    39.333
ATOM     46  C   UNL d   1     -19.934  -1.628   3.173 -0.18 +0.00    +0.004    39.333
ATOM     47  C   UNL d   1     -20.174  -0.462   3.786 -0.15 +0.00    +0.012    39.333
TER
ENDMDL
MODEL       40
USER    Run = 40
USER    Cluster Rank = 21
USER    Number of conformations in this cluster = 1
USER  
USER    RMSD from reference structure       = 29.408 A
USER  
USER    Estimated Free Energy of Binding    =   -5.57 kcal/mol  [=(1)+(2)+(3)-(4)]
USER    Estimated Inhibition Constant, Ki   =   82.06 uM (micromolar)  [Temperature = 298.15 K]
USER    
USER    (1) Final Intermolecular Energy     =   -8.56 kcal/mol
USER        vdW + Hbond + desolv Energy     =   -5.99 kcal/mol
USER        Electrostatic Energy            =   -2.56 kcal/mol
USER    (2) Final Total Internal Energy     =   -1.48 kcal/mol
USER    (3) Torsional Free Energy           =   +2.98 kcal/mol
USER    (4) Unbound System's Energy  [=(2)] =   -1.48 kcal/mol
USER    
USER    
USER  
USER    DPF = D:/Protein_go_brrr/autodock/final/mut_Y35F/heme_O2/dock.dpf
USER    NEWDPF move	heme_O2_opt.pdbqt
USER    NEWDPF about	8.287000 34.468000 -0.670000
USER    NEWDPF tran0	20.855967 5.045653 4.328878
USER    NEWDPF axisangle0	-0.365690 0.212780 0.906088 112.284015
USER    NEWDPF quaternion0	-0.303677 0.176697 0.752434 0.557136
USER    NEWDPF dihe0	26.54 82.52 102.19 120.24 -152.74 104.52 -168.33 -164.56 -10.41 -17.41 
USER  
USER                              x       y       z    vdW   Elec        q     RMS 
ATOM      1  C   UNL d   1      22.183   6.681   4.577 -0.07 +0.05    +0.064    29.408
ATOM      2  C   UNL d   1      17.537   6.165   5.415 -0.12 +0.02    +0.064    29.408
ATOM      3  C   UNL d   1      17.659   1.633   3.820 -0.34 +0.02    +0.064    29.408
ATOM      4  C   UNL d   1      22.533   1.998   3.402 -0.08 +0.02    +0.064    29.408
ATOM      5  C   UNL d   1      20.910   6.910   4.936 -0.08 +0.05    +0.066    29.408
ATOM      6  C   UNL d   1      20.445   8.131   5.434 -0.08 -0.01    -0.021    29.408
ATOM      7  C   UNL d   1      19.109   7.969   5.718 -0.09 -0.01    -0.025    29.408
ATOM      8  C   UNL d   1      18.784   6.669   5.340 -0.12 +0.03    +0.066    29.408
ATOM      9  C   UNL d   1      18.224   9.023   6.349 -0.06 +0.01    +0.051    29.408
ATOM     10  C   UNL d   1      17.131   4.818   5.013 -0.17 +0.02    +0.066    29.408
ATOM     11  C   UNL d   1      15.797   4.401   4.957 -0.24 -0.01    -0.021    29.408
ATOM     12  C   UNL d   1      15.810   3.102   4.482 -0.37 +0.00    +0.000    29.408
ATOM     13  C   UNL d   1      17.183   2.790   4.282 -0.25 +0.02    +0.070    29.408
ATOM     14  C   UNL d   1      14.559   5.216   5.316 -0.25 +0.02    +0.052    29.408
ATOM     15  C   UNL d   1      19.042   1.266   3.637 -0.22 +0.02    +0.066    29.408
ATOM     16  C   UNL d   1      19.482  -0.016   3.306 -0.27 -0.00    -0.021    29.408
ATOM     17  C   UNL d   1      20.869   0.064   3.183 -0.18 +0.00    +0.000    29.408
ATOM     18  C   UNL d   1      21.175   1.406   3.448 -0.14 +0.02    +0.070    29.408
ATOM     19  C   UNL d   1      18.556  -1.200   3.194 -0.26 +0.01    +0.052    29.408
ATOM     20  C   UNL d   1      22.867   3.270   3.693 -0.07 +0.03    +0.066    29.408
ATOM     21  C   UNL d   1      24.162   3.775   3.614 -0.04 -0.01    -0.025    29.408
ATOM     22  C   UNL d   1      24.077   5.115   3.919 -0.05 -0.01    -0.021    29.408
ATOM     23  C   UNL d   1      22.730   5.375   4.192 -0.05 +0.05    +0.066    29.408
ATOM     24  C   UNL d   1      25.417   3.016   3.268 -0.01 +0.01    +0.051    29.408
ATOM     25  N   UNL d   1      19.908   5.997   4.920 -0.08 -0.18    -0.248    29.408
ATOM     26  N   UNL d   1      17.980   3.838   4.612 -0.13 -0.10    -0.248    29.408
ATOM     27  N   UNL d   1      20.063   2.103   3.795 -0.12 -0.09    -0.248    29.408
ATOM     28  N   UNL d   1      22.005   4.241   4.097 -0.04 -0.16    -0.248    29.408
ATOM     29 FE   UNL d   1      20.008   4.038   4.352 -0.04 +0.00    +0.000    29.408
ATOM     30  O   UNL d   1      19.741   4.239   5.872 -0.08 +0.00    +0.000    29.408
ATOM     31  O   UNL d   1      20.715   3.096   5.394 -0.08 +0.00    +0.000    29.408
ATOM     32  C   UNL d   1      21.250   9.361   5.762 -0.03 +0.02    +0.052    29.408
ATOM     33  C   UNL d   1      21.724  10.107   4.519 -0.05 +0.04    +0.115    29.408
ATOM     34  C   UNL d   1      21.094   9.578   3.255 -0.16 +0.11    +0.139    29.408
ATOM     35  O   UNL d   1      19.877   9.544   3.156 -0.19 -0.56    -0.650    29.408
ATOM     36  O   UNL d   1      21.845   9.112   2.235 +0.03 -1.00    -0.776    29.408
ATOM     37  H   UNL d   1      22.725   8.744   2.376 +0.02 +0.19    +0.167    29.408
ATOM     38  C   UNL d   1      25.238   6.071   4.005 -0.01 +0.01    +0.052    29.408
ATOM     39  C   UNL d   1      25.621   6.645   2.642 -0.01 +0.03    +0.115    29.408
ATOM     40  C   UNL d   1      24.561   6.405   1.597 -0.06 +0.08    +0.139    29.408
ATOM     41  O   UNL d   1      24.779   5.629   0.680 +0.00 -0.29    -0.650    29.408
ATOM     42  O   UNL d   1      23.353   6.994   1.683 -0.27 -1.27    -0.776    29.408
ATOM     43  H   UNL d   1      23.199   7.883   1.342 +0.02 +0.23    +0.167    29.408
ATOM     44  C   UNL d   1      14.536   2.309   4.276 -0.50 +0.00    +0.004    29.408
ATOM     45  C   UNL d   1      13.835   1.635   5.187 -0.35 +0.00    +0.012    29.408
ATOM     46  C   UNL d   1      21.899  -0.998   2.901 -0.12 +0.00    +0.004    29.408
ATOM     47  C   UNL d   1      22.676  -1.132   1.819 -0.12 +0.00    +0.012    29.408
TER
ENDMDL
MODEL       56
USER    Run = 56
USER    Cluster Rank = 22
USER    Number of conformations in this cluster = 1
USER  
USER    RMSD from reference structure       = 36.345 A
USER  
USER    Estimated Free Energy of Binding    =   -5.52 kcal/mol  [=(1)+(2)+(3)-(4)]
USER    Estimated Inhibition Constant, Ki   =   90.02 uM (micromolar)  [Temperature = 298.15 K]
USER    
USER    (1) Final Intermolecular Energy     =   -8.50 kcal/mol
USER        vdW + Hbond + desolv Energy     =   -5.20 kcal/mol
USER        Electrostatic Energy            =   -3.30 kcal/mol
USER    (2) Final Total Internal Energy     =   -0.55 kcal/mol
USER    (3) Torsional Free Energy           =   +2.98 kcal/mol
USER    (4) Unbound System's Energy  [=(2)] =   -0.55 kcal/mol
USER    
USER    
USER  
USER    DPF = D:/Protein_go_brrr/autodock/final/mut_Y35F/heme_O2/dock.dpf
USER    NEWDPF move	heme_O2_opt.pdbqt
USER    NEWDPF about	8.287000 34.468000 -0.670000
USER    NEWDPF tran0	-12.416433 5.327272 16.478280
USER    NEWDPF axisangle0	0.658021 -0.450988 0.603007 150.590375
USER    NEWDPF quaternion0	0.636468 -0.436217 0.583257 0.253839
USER    NEWDPF dihe0	78.56 -78.13 86.58 -104.21 150.79 169.29 10.44 114.17 -27.73 178.49 
USER  
USER                              x       y       z    vdW   Elec        q     RMS 
ATOM      1  C   UNL d   1     -13.230   6.773  15.156 -0.08 +0.03    +0.064    36.345
ATOM      2  C   UNL d   1      -9.021   6.422  17.330 -0.17 +0.01    +0.064    36.345
ATOM      3  C   UNL d   1     -10.369   2.341  19.481 -0.07 +0.00    +0.064    36.345
ATOM      4  C   UNL d   1     -14.527   2.438  16.879 -0.07 +0.01    +0.064    36.345
ATOM      5  C   UNL d   1     -11.974   7.009  15.570 -0.11 +0.03    +0.066    36.345
ATOM      6  C   UNL d   1     -11.222   8.124  15.190 -0.18 -0.01    -0.021    36.345
ATOM      7  C   UNL d   1      -9.987   8.001  15.784 -0.19 -0.01    -0.025    36.345
ATOM      8  C   UNL d   1     -10.037   6.839  16.550 -0.16 +0.01    +0.066    36.345
ATOM      9  C   UNL d   1      -8.830   8.955  15.582 -0.25 +0.01    +0.051    36.345
ATOM     10  C   UNL d   1      -9.023   5.224  18.172 -0.16 +0.00    +0.066    36.345
ATOM     11  C   UNL d   1      -8.007   4.925  19.086 -0.15 -0.00    -0.021    36.345
ATOM     12  C   UNL d   1      -8.386   3.761  19.729 -0.12 +0.00    +0.000    36.345
ATOM     13  C   UNL d   1      -9.634   3.402  19.149 -0.05 +0.00    +0.070    36.345
ATOM     14  C   UNL d   1      -6.740   5.730  19.354 -0.11 +0.00    +0.052    36.345
ATOM     15  C   UNL d   1     -11.620   1.924  18.894 -0.10 +0.00    +0.066    36.345
ATOM     16  C   UNL d   1     -12.259   0.715  19.171 -0.09 -0.00    -0.021    36.345
ATOM     17  C   UNL d   1     -13.446   0.720  18.440 -0.07 +0.00    +0.000    36.345
ATOM     18  C   UNL d   1     -13.444   1.949  17.764 -0.08 +0.00    +0.070    36.345
ATOM     19  C   UNL d   1     -11.659  -0.348  20.056 -0.06 +0.00    +0.052    36.345
ATOM     20  C   UNL d   1     -14.537   3.591  16.182 -0.06 +0.01    +0.066    36.345
ATOM     21  C   UNL d   1     -15.594   4.007  15.377 -0.06 -0.01    -0.025    36.345
ATOM     22  C   UNL d   1     -15.254   5.253  14.900 -0.05 -0.01    -0.021    36.345
ATOM     23  C   UNL d   1     -13.988   5.544  15.418 -0.05 +0.02    +0.066    36.345
ATOM     24  C   UNL d   1     -16.864   3.253  15.077 +0.02 +0.01    +0.051    36.345
ATOM     25  N   UNL d   1     -11.238   6.195  16.366 -0.07 -0.06    -0.248    36.345
ATOM     26  N   UNL d   1     -10.012   4.295  18.200 -0.10 +0.00    -0.248    36.345
ATOM     27  N   UNL d   1     -12.294   2.632  17.993 -0.08 -0.01    -0.248    36.345
ATOM     28  N   UNL d   1     -13.537   4.512  16.160 -0.02 -0.05    -0.248    36.345
ATOM     29 FE   UNL d   1     -11.788   4.402  17.173 -0.03 +0.00    +0.000    36.345
ATOM     30  O   UNL d   1     -10.669   4.289  16.098 -0.27 +0.00    +0.000    36.345
ATOM     31  O   UNL d   1     -11.815   3.210  16.148 -0.24 +0.00    +0.000    36.345
ATOM     32  C   UNL d   1     -11.594   9.195  14.198 +0.08 +0.05    +0.052    36.345
ATOM     33  C   UNL d   1     -12.913   9.883  14.537 -0.14 +0.08    +0.115    36.345
ATOM     34  C   UNL d   1     -13.377  10.810  13.440 -0.12 +0.14    +0.139    36.345
ATOM     35  O   UNL d   1     -12.703  10.933  12.430 -0.61 -1.19    -0.650    36.345
ATOM     36  O   UNL d   1     -14.510  11.531  13.561 +0.02 -0.37    -0.776    36.345
ATOM     37  H   UNL d   1     -14.547  12.342  14.081 +0.01 +0.05    +0.167    36.345
ATOM     38  C   UNL d   1     -16.075   6.083  13.947 -0.04 +0.02    +0.052    36.345
ATOM     39  C   UNL d   1     -15.922   5.627  12.498 -0.09 +0.07    +0.115    36.345
ATOM     40  C   UNL d   1     -14.534   5.869  11.961 -0.15 +0.17    +0.139    36.345
ATOM     41  O   UNL d   1     -13.989   6.944  12.151 -0.22 -1.23    -0.650    36.345
ATOM     42  O   UNL d   1     -13.859   4.898  11.316 -0.33 -1.36    -0.776    36.345
ATOM     43  H   UNL d   1     -13.456   4.161  11.792 +0.06 +0.27    +0.167    36.345
ATOM     44  C   UNL d   1      -7.533   3.124  20.806 -0.08 +0.00    +0.004    36.345
ATOM     45  C   UNL d   1      -6.674   2.113  20.678 -0.09 +0.00    +0.012    36.345
ATOM     46  C   UNL d   1     -14.517  -0.327  18.286 -0.07 -0.00    +0.004    36.345
ATOM     47  C   UNL d   1     -14.820  -1.048  17.199 -0.13 -0.00    +0.012    36.345
TER
ENDMDL
MODEL       46
USER    Run = 46
USER    Cluster Rank = 23
USER    Number of conformations in this cluster = 4
USER  
USER    RMSD from reference structure       = 37.485 A
USER  
USER    Estimated Free Energy of Binding    =   -5.42 kcal/mol  [=(1)+(2)+(3)-(4)]
USER    Estimated Inhibition Constant, Ki   =  106.18 uM (micromolar)  [Temperature = 298.15 K]
USER    
USER    (1) Final Intermolecular Energy     =   -8.40 kcal/mol
USER        vdW + Hbond + desolv Energy     =   -7.46 kcal/mol
USER        Electrostatic Energy            =   -0.94 kcal/mol
USER    (2) Final Total Internal Energy     =   -1.83 kcal/mol
USER    (3) Torsional Free Energy           =   +2.98 kcal/mol
USER    (4) Unbound System's Energy  [=(2)] =   -1.83 kcal/mol
USER    
USER    
USER  
USER    DPF = D:/Protein_go_brrr/autodock/final/mut_Y35F/heme_O2/dock.dpf
USER    NEWDPF move	heme_O2_opt.pdbqt
USER    NEWDPF about	8.287000 34.468000 -0.670000
USER    NEWDPF tran0	-10.689127 0.195424 -6.785118
USER    NEWDPF axisangle0	-0.285701 0.955458 -0.073995 144.957874
USER    NEWDPF quaternion0	-0.272446 0.911131 -0.070562 0.301056
USER    NEWDPF dihe0	24.25 -49.50 64.38 159.22 -134.39 -41.69 -67.40 180.00 -157.14 -180.00 
USER  
USER                              x       y       z    vdW   Elec        q     RMS 
ATOM      1  C   UNL d   1      -9.352   1.785  -7.215 -0.21 -0.00    +0.064    37.485
ATOM      2  C   UNL d   1     -10.561  -2.128  -9.620 -0.17 +0.01    +0.064    37.485
ATOM      3  C   UNL d   1     -13.513  -3.501  -6.084 -0.19 +0.01    +0.064    37.485
ATOM      4  C   UNL d   1     -12.640   0.759  -3.812 -0.22 +0.00    +0.064    37.485
ATOM      5  C   UNL d   1      -9.441   0.834  -8.158 -0.13 +0.00    +0.066    37.485
ATOM      6  C   UNL d   1      -8.714   0.844  -9.351 -0.15 -0.00    -0.021    37.485
ATOM      7  C   UNL d   1      -9.095  -0.266 -10.068 -0.11 -0.00    -0.025    37.485
ATOM      8  C   UNL d   1     -10.010  -0.950  -9.271 -0.13 +0.01    +0.066    37.485
ATOM      9  C   UNL d   1      -8.609  -0.608 -11.459 -0.06 +0.00    +0.051    37.485
ATOM     10  C   UNL d   1     -11.508  -2.903  -8.816 -0.21 +0.01    +0.066    37.485
ATOM     11  C   UNL d   1     -11.923  -4.196  -9.151 -0.23 -0.00    -0.021    37.485
ATOM     12  C   UNL d   1     -12.761  -4.616  -8.134 -0.32 +0.00    +0.000    37.485
ATOM     13  C   UNL d   1     -12.820  -3.526  -7.223 -0.25 +0.01    +0.070    37.485
ATOM     14  C   UNL d   1     -11.516  -5.008 -10.375 -0.07 -0.00    +0.052    37.485
ATOM     15  C   UNL d   1     -13.627  -2.405  -5.152 -0.23 +0.01    +0.066    37.485
ATOM     16  C   UNL d   1     -14.497  -2.381  -4.063 -0.30 -0.00    -0.021    37.485
ATOM     17  C   UNL d   1     -14.267  -1.175  -3.401 -0.28 +0.00    +0.000    37.485
ATOM     18  C   UNL d   1     -13.258  -0.546  -4.144 -0.21 +0.01    +0.070    37.485
ATOM     19  C   UNL d   1     -15.499  -3.473  -3.786 -0.27 +0.01    +0.052    37.485
ATOM     20  C   UNL d   1     -11.702   1.410  -4.527 -0.20 +0.00    +0.066    37.485
ATOM     21  C   UNL d   1     -11.144   2.630  -4.154 -0.18 -0.00    -0.025    37.485
ATOM     22  C   UNL d   1     -10.185   2.924  -5.098 -0.21 -0.00    -0.021    37.485
ATOM     23  C   UNL d   1     -10.207   1.878  -6.025 -0.19 -0.00    +0.066    37.485
ATOM     24  C   UNL d   1     -11.509   3.473  -2.960 -0.09 +0.00    +0.051    37.485
ATOM     25  N   UNL d   1     -10.271  -0.238  -8.123 -0.08 -0.01    -0.248    37.485
ATOM     26  N   UNL d   1     -12.059  -2.486  -7.648 -0.14 -0.04    -0.248    37.485
ATOM     27  N   UNL d   1     -12.935  -1.272  -5.245 -0.04 -0.03    -0.248    37.485
ATOM     28  N   UNL d   1     -11.161   0.982  -5.699 -0.14 +0.00    -0.248    37.485
ATOM     29 FE   UNL d   1     -11.609  -0.740  -6.664 -0.05 +0.00    +0.000    37.485
ATOM     30  O   UNL d   1     -12.273  -0.324  -8.009 -0.12 +0.00    +0.000    37.485
ATOM     31  O   UNL d   1     -12.910   0.143  -6.646 -0.12 +0.00    +0.000    37.485
ATOM     32  C   UNL d   1      -7.797   1.924  -9.864 -0.14 +0.01    +0.052    37.485
ATOM     33  C   UNL d   1      -8.551   3.155 -10.359 -0.06 +0.02    +0.115    37.485
ATOM     34  C   UNL d   1      -8.353   4.350  -9.460 -0.05 +0.07    +0.139    37.485
ATOM     35  O   UNL d   1      -7.293   4.954  -9.483 -0.55 -0.61    -0.650    37.485
ATOM     36  O   UNL d   1      -9.316   4.754  -8.606 +0.00 -0.43    -0.776    37.485
ATOM     37  H   UNL d   1      -9.991   4.150  -8.273 +0.03 +0.05    +0.167    37.485
ATOM     38  C   UNL d   1      -9.345   4.175  -5.136 -0.24 +0.02    +0.052    37.485
ATOM     39  C   UNL d   1     -10.113   5.375  -5.684 -0.09 +0.05    +0.115    37.485
ATOM     40  C   UNL d   1     -11.523   5.023  -6.086 -0.05 +0.03    +0.139    37.485
ATOM     41  O   UNL d   1     -12.455   5.331  -5.360 +0.03 -0.07    -0.650    37.485
ATOM     42  O   UNL d   1     -11.781   4.417  -7.261 +0.05 -0.11    -0.776    37.485
ATOM     43  H   UNL d   1     -11.386   4.725  -8.085 +0.02 +0.03    +0.167    37.485
ATOM     44  C   UNL d   1     -13.407  -5.986  -8.140 -0.38 +0.00    +0.004    37.485
ATOM     45  C   UNL d   1     -14.708  -6.277  -8.134 -0.26 +0.00    +0.012    37.485
ATOM     46  C   UNL d   1     -14.938  -0.563  -2.200 -0.20 +0.00    +0.004    37.485
ATOM     47  C   UNL d   1     -14.421   0.293  -1.309 -0.26 +0.00    +0.012    37.485
TER
ENDMDL
MODEL       20
USER    Run = 20
USER    Cluster Rank = 24
USER    Number of conformations in this cluster = 1
USER  
USER    RMSD from reference structure       = 22.290 A
USER  
USER    Estimated Free Energy of Binding    =   -5.40 kcal/mol  [=(1)+(2)+(3)-(4)]
USER    Estimated Inhibition Constant, Ki   =  110.42 uM (micromolar)  [Temperature = 298.15 K]
USER    
USER    (1) Final Intermolecular Energy     =   -8.38 kcal/mol
USER        vdW + Hbond + desolv Energy     =   -6.97 kcal/mol
USER        Electrostatic Energy            =   -1.41 kcal/mol
USER    (2) Final Total Internal Energy     =   -0.46 kcal/mol
USER    (3) Torsional Free Energy           =   +2.98 kcal/mol
USER    (4) Unbound System's Energy  [=(2)] =   -0.46 kcal/mol
USER    
USER    
USER  
USER    DPF = D:/Protein_go_brrr/autodock/final/mut_Y35F/heme_O2/dock.dpf
USER    NEWDPF move	heme_O2_opt.pdbqt
USER    NEWDPF about	8.287000 34.468000 -0.670000
USER    NEWDPF tran0	1.445125 14.536648 -10.461691
USER    NEWDPF axisangle0	-0.379474 0.891014 0.249187 -168.167025
USER    NEWDPF quaternion0	-0.377453 0.886267 0.247859 -0.103079
USER    NEWDPF dihe0	99.98 -6.95 -48.65 127.98 -132.56 -56.34 -6.27 43.46 27.46 165.58 
USER  
USER                              x       y       z    vdW   Elec        q     RMS 
ATOM      1  C   UNL d   1       2.313  15.635  -8.868 -0.09 +0.01    +0.064    22.290
ATOM      2  C   UNL d   1       3.445  15.211 -13.461 -0.13 +0.00    +0.064    22.290
ATOM      3  C   UNL d   1      -0.200  12.161 -14.173 -0.14 -0.00    +0.064    22.290
ATOM      4  C   UNL d   1      -1.663  12.960  -9.559 -0.19 -0.01    +0.064    22.290
ATOM      5  C   UNL d   1       2.917  15.770 -10.059 -0.08 +0.01    +0.066    22.290
ATOM      6  C   UNL d   1       4.049  16.561 -10.278 -0.11 -0.00    -0.021    22.290
ATOM      7  C   UNL d   1       4.352  16.473 -11.617 -0.14 -0.00    -0.025    22.290
ATOM      8  C   UNL d   1       3.425  15.593 -12.169 -0.18 +0.00    +0.066    22.290
ATOM      9  C   UNL d   1       5.464  17.234 -12.304 -0.07 +0.00    +0.051    22.290
ATOM     10  C   UNL d   1       2.514  14.274 -14.092 -0.13 -0.00    +0.066    22.290
ATOM     11  C   UNL d   1       2.678  13.787 -15.394 -0.08 +0.00    -0.021    22.290
ATOM     12  C   UNL d   1       1.647  12.892 -15.611 -0.09 -0.00    +0.000    22.290
ATOM     13  C   UNL d   1       0.889  12.893 -14.408 -0.11 -0.00    +0.070    22.290
ATOM     14  C   UNL d   1       3.787  14.139 -16.378 -0.04 -0.00    +0.052    22.290
ATOM     15  C   UNL d   1      -1.015  12.160 -12.982 -0.10 -0.00    +0.066    22.290
ATOM     16  C   UNL d   1      -2.234  11.494 -12.860 -0.12 +0.00    -0.021    22.290
ATOM     17  C   UNL d   1      -2.671  11.708 -11.552 -0.15 -0.00    +0.000    22.290
ATOM     18  C   UNL d   1      -1.671  12.498 -10.967 -0.12 -0.01    +0.070    22.290
ATOM     19  C   UNL d   1      -2.893  10.767 -14.005 -0.06 -0.00    +0.052    22.290
ATOM     20  C   UNL d   1      -0.742  13.754  -8.978 -0.22 -0.01    +0.066    22.290
ATOM     21  C   UNL d   1      -0.779  14.142  -7.642 -0.26 +0.01    -0.025    22.290
ATOM     22  C   UNL d   1       0.361  14.882  -7.420 -0.25 +0.01    -0.021    22.290
ATOM     23  C   UNL d   1       1.044  14.934  -8.639 -0.18 -0.01    +0.066    22.290
ATOM     24  C   UNL d   1      -1.848  13.825  -6.629 -0.25 -0.03    +0.051    22.290
ATOM     25  N   UNL d   1       2.502  15.212 -11.223 -0.17 -0.01    -0.248    22.290
ATOM     26  N   UNL d   1       1.421  13.741 -13.491 -0.11 +0.01    -0.248    22.290
ATOM     27  N   UNL d   1      -0.712  12.824 -11.871 -0.09 +0.02    -0.248    22.290
ATOM     28  N   UNL d   1       0.347  14.284  -9.594 -0.19 +0.03    -0.248    22.290
ATOM     29 FE   UNL d   1       0.877  14.013 -11.529 -0.06 -0.00    +0.000    22.290
ATOM     30  O   UNL d   1       0.766  15.408 -12.210 -0.13 -0.00    +0.000    22.290
ATOM     31  O   UNL d   1      -0.499  14.773 -11.519 -0.14 -0.00    +0.000    22.290
ATOM     32  C   UNL d   1       4.740  17.474  -9.299 -0.17 +0.01    +0.052    22.290
ATOM     33  C   UNL d   1       6.122  16.970  -8.893 -0.20 +0.03    +0.115    22.290
ATOM     34  C   UNL d   1       6.887  17.983  -8.078 -0.16 +0.05    +0.139    22.290
ATOM     35  O   UNL d   1       6.604  18.151  -6.903 -0.38 -0.60    -0.650    22.290
ATOM     36  O   UNL d   1       7.864  18.734  -8.628 +0.05 -0.11    -0.776    22.290
ATOM     37  H   UNL d   1       7.715  19.647  -8.900 +0.02 +0.02    +0.167    22.290
ATOM     38  C   UNL d   1       0.734  15.553  -6.123 -0.30 -0.02    +0.052    22.290
ATOM     39  C   UNL d   1       0.247  16.999  -6.056 -0.12 -0.04    +0.115    22.290
ATOM     40  C   UNL d   1       1.281  17.929  -5.472 -0.09 +0.04    +0.139    22.290
ATOM     41  O   UNL d   1       2.106  18.454  -6.202 -0.32 -0.41    -0.650    22.290
ATOM     42  O   UNL d   1       1.280  18.234  -4.160 -0.57 -0.34    -0.776    22.290
ATOM     43  H   UNL d   1       0.587  17.916  -3.568 -0.04 -0.04    +0.167    22.290
ATOM     44  C   UNL d   1       1.493  12.146 -16.920 -0.04 -0.00    +0.004    22.290
ATOM     45  C   UNL d   1       1.371  10.832 -17.104 -0.05 -0.00    +0.012    22.290
ATOM     46  C   UNL d   1      -3.938  11.293 -10.853 -0.13 -0.00    +0.004    22.290
ATOM     47  C   UNL d   1      -4.068  10.541  -9.752 -0.26 -0.00    +0.012    22.290
TER
ENDMDL
MODEL       74
USER    Run = 74
USER    Cluster Rank = 25
USER    Number of conformations in this cluster = 1
USER  
USER    RMSD from reference structure       = 31.861 A
USER  
USER    Estimated Free Energy of Binding    =   -5.33 kcal/mol  [=(1)+(2)+(3)-(4)]
USER    Estimated Inhibition Constant, Ki   =  123.00 uM (micromolar)  [Temperature = 298.15 K]
USER    
USER    (1) Final Intermolecular Energy     =   -8.32 kcal/mol
USER        vdW + Hbond + desolv Energy     =   -5.48 kcal/mol
USER        Electrostatic Energy            =   -2.84 kcal/mol
USER    (2) Final Total Internal Energy     =   -0.70 kcal/mol
USER    (3) Torsional Free Energy           =   +2.98 kcal/mol
USER    (4) Unbound System's Energy  [=(2)] =   -0.70 kcal/mol
USER    
USER    
USER  
USER    DPF = D:/Protein_go_brrr/autodock/final/mut_Y35F/heme_O2/dock.dpf
USER    NEWDPF move	heme_O2_opt.pdbqt
USER    NEWDPF about	8.287000 34.468000 -0.670000
USER    NEWDPF tran0	17.024957 1.726346 6.961328
USER    NEWDPF axisangle0	-0.516662 0.690815 -0.505801 -155.227052
USER    NEWDPF quaternion0	-0.504636 0.674735 -0.494028 -0.214505
USER    NEWDPF dihe0	153.56 -15.18 42.08 107.33 100.99 124.04 -40.18 128.77 -155.03 -15.60 
USER  
USER                              x       y       z    vdW   Elec        q     RMS 
ATOM      1  C   UNL d   1      16.858   3.758   6.374 -0.06 +0.02    +0.064    31.861
ATOM      2  C   UNL d   1      20.590   1.033   7.472 -0.01 +0.01    +0.064    31.861
ATOM      3  C   UNL d   1      17.712  -2.713   8.355 -0.02 +0.01    +0.064    31.861
ATOM      4  C   UNL d   1      13.904  -0.058   6.767 -0.24 +0.01    +0.064    31.861
ATOM      5  C   UNL d   1      18.108   3.322   6.599 -0.04 +0.02    +0.066    31.861
ATOM      6  C   UNL d   1      19.249   4.120   6.478 -0.04 -0.01    -0.021    31.861
ATOM      7  C   UNL d   1      20.333   3.321   6.753 -0.02 -0.01    -0.025    31.861
ATOM      8  C   UNL d   1      19.822   2.068   7.083 -0.02 +0.01    +0.066    31.861
ATOM      9  C   UNL d   1      21.778   3.761   6.665 -0.02 +0.01    +0.051    31.861
ATOM     10  C   UNL d   1      20.109  -0.296   7.852 -0.01 +0.01    +0.066    31.861
ATOM     11  C   UNL d   1      20.932  -1.284   8.405 -0.00 -0.00    -0.021    31.861
ATOM     12  C   UNL d   1      20.117  -2.365   8.683 -0.00 +0.00    +0.000    31.861
ATOM     13  C   UNL d   1      18.816  -1.972   8.263 -0.01 +0.01    +0.070    31.861
ATOM     14  C   UNL d   1      22.428  -1.189   8.682 +0.00 +0.00    +0.052    31.861
ATOM     15  C   UNL d   1      16.384  -2.366   7.909 -0.05 +0.01    +0.066    31.861
ATOM     16  C   UNL d   1      15.303  -3.247   7.883 -0.09 -0.00    -0.021    31.861
ATOM     17  C   UNL d   1      14.206  -2.512   7.433 -0.21 +0.00    +0.000    31.861
ATOM     18  C   UNL d   1      14.706  -1.220   7.217 -0.16 +0.01    +0.070    31.861
ATOM     19  C   UNL d   1      15.425  -4.709   8.233 -0.09 +0.02    +0.052    31.861
ATOM     20  C   UNL d   1      14.361   1.183   6.509 -0.24 +0.02    +0.066    31.861
ATOM     21  C   UNL d   1      13.553   2.242   6.104 -0.36 -0.01    -0.025    31.861
ATOM     22  C   UNL d   1      14.373   3.344   6.013 -0.24 -0.01    -0.021    31.861
ATOM     23  C   UNL d   1      15.659   2.911   6.351 -0.11 +0.02    +0.066    31.861
ATOM     24  C   UNL d   1      12.075   2.204   5.814 +0.05 +0.03    +0.051    31.861
ATOM     25  N   UNL d   1      18.455   2.052   6.924 -0.01 -0.05    -0.248    31.861
ATOM     26  N   UNL d   1      18.821  -0.714   7.754 -0.01 -0.03    -0.248    31.861
ATOM     27  N   UNL d   1      16.045  -1.169   7.440 -0.05 -0.05    -0.248    31.861
ATOM     28  N   UNL d   1      15.655   1.586   6.607 -0.07 -0.06    -0.248    31.861
ATOM     29 FE   UNL d   1      17.225   0.442   7.177 -0.01 +0.00    +0.000    31.861
ATOM     30  O   UNL d   1      18.156   0.332   5.934 -0.11 +0.00    +0.000    31.861
ATOM     31  O   UNL d   1      16.663  -0.160   5.837 -0.10 +0.00    +0.000    31.861
ATOM     32  C   UNL d   1      19.332   5.543   5.988 -0.08 +0.02    +0.052    31.861
ATOM     33  C   UNL d   1      19.085   5.668   4.488 -0.12 +0.09    +0.115    31.861
ATOM     34  C   UNL d   1      18.204   6.844   4.146 -0.25 +0.10    +0.139    31.861
ATOM     35  O   UNL d   1      17.150   7.001   4.741 -0.01 -0.27    -0.650    31.861
ATOM     36  O   UNL d   1      18.542   7.717   3.175 -0.53 -0.93    -0.776    31.861
ATOM     37  H   UNL d   1      17.880   8.226   2.693 -0.32 +0.10    +0.167    31.861
ATOM     38  C   UNL d   1      13.951   4.719   5.565 -0.28 +0.02    +0.052    31.861
ATOM     39  C   UNL d   1      13.398   5.561   6.713 -0.16 +0.06    +0.115    31.861
ATOM     40  C   UNL d   1      12.305   4.852   7.474 -0.02 +0.17    +0.139    31.861
ATOM     41  O   UNL d   1      11.140   5.002   7.142 -0.50 -1.00    -0.650    31.861
ATOM     42  O   UNL d   1      12.595   4.012   8.486 -0.13 -1.37    -0.776    31.861
ATOM     43  H   UNL d   1      13.495   3.701   8.642 +0.03 +0.17    +0.167    31.861
ATOM     44  C   UNL d   1      20.654  -3.638   9.304 -0.00 +0.00    +0.004    31.861
ATOM     45  C   UNL d   1      20.296  -4.893   9.038 +0.00 +0.00    +0.012    31.861
ATOM     46  C   UNL d   1      12.789  -2.929   7.144 -0.40 +0.00    +0.004    31.861
ATOM     47  C   UNL d   1      11.704  -2.765   7.912 -0.37 +0.00    +0.012    31.861
TER
ENDMDL
MODEL       66
USER    Run = 66
USER    Cluster Rank = 26
USER    Number of conformations in this cluster = 1
USER  
USER    RMSD from reference structure       = 43.655 A
USER  
USER    Estimated Free Energy of Binding    =   -5.30 kcal/mol  [=(1)+(2)+(3)-(4)]
USER    Estimated Inhibition Constant, Ki   =  131.41 uM (micromolar)  [Temperature = 298.15 K]
USER    
USER    (1) Final Intermolecular Energy     =   -8.28 kcal/mol
USER        vdW + Hbond + desolv Energy     =   -8.44 kcal/mol
USER        Electrostatic Energy            =   +0.16 kcal/mol
USER    (2) Final Total Internal Energy     =   -0.74 kcal/mol
USER    (3) Torsional Free Energy           =   +2.98 kcal/mol
USER    (4) Unbound System's Energy  [=(2)] =   -0.74 kcal/mol
USER    
USER    
USER  
USER    DPF = D:/Protein_go_brrr/autodock/final/mut_Y35F/heme_O2/dock.dpf
USER    NEWDPF move	heme_O2_opt.pdbqt
USER    NEWDPF about	8.287000 34.468000 -0.670000
USER    NEWDPF tran0	4.700178 -11.060731 7.978373
USER    NEWDPF axisangle0	0.647335 0.721649 -0.245314 105.368447
USER    NEWDPF quaternion0	0.514830 0.573933 -0.195100 0.606207
USER    NEWDPF dihe0	-4.94 -70.68 -70.82 -104.52 51.04 35.63 -101.07 -59.52 0.40 40.19 
USER  
USER                              x       y       z    vdW   Elec        q     RMS 
ATOM      1  C   UNL d   1       5.135 -12.691   6.693 -0.14 -0.01    +0.064    43.655
ATOM      2  C   UNL d   1       1.156 -11.309   8.888 -0.16 -0.01    +0.064    43.655
ATOM      3  C   UNL d   1       3.448  -7.599  10.906 -0.23 -0.04    +0.064    43.655
ATOM      4  C   UNL d   1       7.431  -8.734   8.277 -0.15 -0.01    +0.064    43.655
ATOM      5  C   UNL d   1       3.865 -12.617   7.124 -0.14 -0.01    +0.066    43.655
ATOM      6  C   UNL d   1       2.868 -13.535   6.783 -0.23 +0.00    -0.021    43.655
ATOM      7  C   UNL d   1       1.705 -13.112   7.383 -0.23 +0.00    -0.025    43.655
ATOM      8  C   UNL d   1       2.035 -11.973   8.113 -0.16 -0.01    +0.066    43.655
ATOM      9  C   UNL d   1       0.355 -13.774   7.217 -0.14 -0.00    +0.051    43.655
ATOM     10  C   UNL d   1       1.449 -10.123   9.694 -0.15 -0.01    +0.066    43.655
ATOM     11  C   UNL d   1       0.543  -9.570  10.606 -0.21 +0.00    -0.021    43.655
ATOM     12  C   UNL d   1       1.192  -8.510  11.211 -0.25 -0.00    +0.000    43.655
ATOM     13  C   UNL d   1       2.481  -8.468  10.612 -0.03 -0.02    +0.070    43.655
ATOM     14  C   UNL d   1      -0.872 -10.050  10.907 -0.23 -0.01    +0.052    43.655
ATOM     15  C   UNL d   1       4.753  -7.501  10.298 -0.19 -0.02    +0.066    43.655
ATOM     16  C   UNL d   1       5.660  -6.468  10.534 -0.18 +0.01    -0.021    43.655
ATOM     17  C   UNL d   1       6.803  -6.770   9.794 -0.15 -0.00    +0.000    43.655
ATOM     18  C   UNL d   1       6.505  -7.981   9.155 -0.14 -0.01    +0.070    43.655
ATOM     19  C   UNL d   1       5.337  -5.270  11.392 -0.23 -0.04    +0.052    43.655
ATOM     20  C   UNL d   1       7.162  -9.876   7.614 -0.14 -0.01    +0.066    43.655
ATOM     21  C   UNL d   1       8.082 -10.549   6.815 -0.21 +0.01    -0.025    43.655
ATOM     22  C   UNL d   1       7.454 -11.693   6.377 -0.19 +0.00    -0.021    43.655
ATOM     23  C   UNL d   1       6.163 -11.667   6.913 -0.13 -0.01    +0.066    43.655
ATOM     24  C   UNL d   1       9.488 -10.120   6.482 +0.01 -0.03    +0.051    43.655
ATOM     25  N   UNL d   1       3.351 -11.632   7.900 -0.08 +0.03    -0.248    43.655
ATOM     26  N   UNL d   1       2.627  -9.450   9.686 -0.04 +0.03    -0.248    43.655
ATOM     27  N   UNL d   1       5.230  -8.371   9.413 -0.10 +0.03    -0.248    43.655
ATOM     28  N   UNL d   1       5.975 -10.538   7.628 -0.08 +0.03    -0.248    43.655
ATOM     29 FE   UNL d   1       4.315  -9.995   8.650 -0.04 -0.00    +0.000    43.655
ATOM     30  O   UNL d   1       3.237  -9.654   7.580 -0.54 +0.00    +0.000    43.655
ATOM     31  O   UNL d   1       4.604  -8.871   7.589 -0.83 +0.00    +0.000    43.655
ATOM     32  C   UNL d   1       2.967 -14.690   5.820 -0.12 -0.02    +0.052    43.655
ATOM     33  C   UNL d   1       3.548 -15.947   6.461 -0.10 -0.03    +0.115    43.655
ATOM     34  C   UNL d   1       2.545 -16.665   7.331 -0.09 -0.03    +0.139    43.655
ATOM     35  O   UNL d   1       2.582 -16.515   8.542 +0.01 +0.07    -0.650    43.655
ATOM     36  O   UNL d   1       1.622 -17.495   6.803 +0.05 +0.17    -0.776    43.655
ATOM     37  H   UNL d   1       1.524 -17.610   5.850 -0.48 -0.08    +0.167    43.655
ATOM     38  C   UNL d   1       8.045 -12.718   5.444 -0.23 -0.01    +0.052    43.655
ATOM     39  C   UNL d   1       7.649 -14.144   5.819 -0.07 -0.02    +0.115    43.655
ATOM     40  C   UNL d   1       6.883 -14.837   4.720 -0.15 -0.03    +0.139    43.655
ATOM     41  O   UNL d   1       6.497 -15.984   4.881 +0.04 +0.11    -0.650    43.655
ATOM     42  O   UNL d   1       6.569 -14.195   3.578 +0.01 +0.19    -0.776    43.655
ATOM     43  H   UNL d   1       5.937 -13.467   3.566 -0.44 -0.08    +0.167    43.655
ATOM     44  C   UNL d   1       0.527  -7.662  12.275 -0.34 -0.00    +0.004    43.655
ATOM     45  C   UNL d   1       0.742  -7.681  13.590 -0.24 -0.01    +0.012    43.655
ATOM     46  C   UNL d   1       8.086  -6.005   9.601 -0.20 -0.00    +0.004    43.655
ATOM     47  C   UNL d   1       8.536  -5.410   8.490 -0.37 +0.00    +0.012    43.655
TER
ENDMDL
MODEL       92
USER    Run = 92
USER    Cluster Rank = 27
USER    Number of conformations in this cluster = 1
USER  
USER    RMSD from reference structure       = 53.602 A
USER  
USER    Estimated Free Energy of Binding    =   -5.28 kcal/mol  [=(1)+(2)+(3)-(4)]
USER    Estimated Inhibition Constant, Ki   =  134.01 uM (micromolar)  [Temperature = 298.15 K]
USER    
USER    (1) Final Intermolecular Energy     =   -8.27 kcal/mol
USER        vdW + Hbond + desolv Energy     =   -7.15 kcal/mol
USER        Electrostatic Energy            =   -1.11 kcal/mol
USER    (2) Final Total Internal Energy     =   -0.65 kcal/mol
USER    (3) Torsional Free Energy           =   +2.98 kcal/mol
USER    (4) Unbound System's Energy  [=(2)] =   -0.65 kcal/mol
USER    
USER    
USER  
USER    DPF = D:/Protein_go_brrr/autodock/final/mut_Y35F/heme_O2/dock.dpf
USER    NEWDPF move	heme_O2_opt.pdbqt
USER    NEWDPF about	8.287000 34.468000 -0.670000
USER    NEWDPF tran0	-10.340375 -18.205475 -0.058078
USER    NEWDPF axisangle0	0.244131 0.508929 -0.825464 162.479127
USER    NEWDPF quaternion0	0.241283 0.502992 -0.815834 0.152303
USER    NEWDPF dihe0	-21.61 180.00 -110.84 -121.97 -118.39 138.37 -36.45 174.83 -153.54 6.79 
USER  
USER                              x       y       z    vdW   Elec        q     RMS 
ATOM      1  C   UNL d   1      -8.341 -18.796  -0.449 -0.12 +0.00    +0.064    53.602
ATOM      2  C   UNL d   1     -11.336 -19.768   3.107 -0.10 -0.00    +0.064    53.602
ATOM      3  C   UNL d   1     -14.734 -17.010   1.121 -0.20 -0.00    +0.064    53.602
ATOM      4  C   UNL d   1     -11.831 -16.385  -2.783 -0.18 +0.00    +0.064    53.602
ATOM      5  C   UNL d   1      -8.879 -19.287   0.679 -0.09 +0.00    +0.066    53.602
ATOM      6  C   UNL d   1      -8.201 -20.124   1.570 -0.06 -0.00    -0.021    53.602
ATOM      7  C   UNL d   1      -9.081 -20.441   2.578 -0.08 -0.00    -0.025    53.602
ATOM      8  C   UNL d   1     -10.258 -19.750   2.300 -0.11 -0.00    +0.066    53.602
ATOM      9  C   UNL d   1      -8.785 -21.388   3.720 -0.05 +0.00    +0.051    53.602
ATOM     10  C   UNL d   1     -12.589 -19.046   2.880 -0.06 +0.00    +0.066    53.602
ATOM     11  C   UNL d   1     -13.615 -18.968   3.828 -0.00 -0.00    -0.021    53.602
ATOM     12  C   UNL d   1     -14.596 -18.162   3.281 -0.24 -0.00    +0.000    53.602
ATOM     13  C   UNL d   1     -14.108 -17.796   1.997 -0.23 -0.00    +0.070    53.602
ATOM     14  C   UNL d   1     -13.646 -19.613   5.209 -0.05 +0.01    +0.052    53.602
ATOM     15  C   UNL d   1     -14.290 -16.644  -0.202 -0.19 -0.00    +0.066    53.602
ATOM     16  C   UNL d   1     -15.065 -15.953  -1.134 -0.18 +0.00    -0.021    53.602
ATOM     17  C   UNL d   1     -14.258 -15.765  -2.255 -0.18 -0.00    +0.000    53.602
ATOM     18  C   UNL d   1     -13.034 -16.361  -1.919 -0.15 -0.00    +0.070    53.602
ATOM     19  C   UNL d   1     -16.508 -15.588  -0.893 -0.13 -0.01    +0.052    53.602
ATOM     20  C   UNL d   1     -10.656 -16.985  -2.510 -0.16 -0.00    +0.066    53.602
ATOM     21  C   UNL d   1      -9.551 -16.960  -3.356 -0.23 +0.00    -0.025    53.602
ATOM     22  C   UNL d   1      -8.538 -17.618  -2.695 -0.20 +0.00    -0.021    53.602
ATOM     23  C   UNL d   1      -9.071 -18.039  -1.473 -0.13 +0.00    +0.066    53.602
ATOM     24  C   UNL d   1      -9.466 -16.341  -4.728 -0.14 -0.01    +0.051    53.602
ATOM     25  N   UNL d   1     -10.154 -19.091   1.097 -0.07 +0.00    -0.248    53.602
ATOM     26  N   UNL d   1     -12.888 -18.342   1.759 -0.12 +0.01    -0.248    53.602
ATOM     27  N   UNL d   1     -13.096 -16.954  -0.700 -0.09 +0.01    -0.248    53.602
ATOM     28  N   UNL d   1     -10.371 -17.691  -1.383 -0.07 +0.00    -0.248    53.602
ATOM     29 FE   UNL d   1     -11.622 -18.013   0.175 -0.03 -0.00    +0.000    53.602
ATOM     30  O   UNL d   1     -11.894 -19.545   0.205 -0.06 -0.00    +0.000    53.602
ATOM     31  O   UNL d   1     -12.248 -18.715  -1.086 -0.07 -0.00    +0.000    53.602
ATOM     32  C   UNL d   1      -6.824 -20.716   1.414 -0.10 +0.01    +0.052    53.602
ATOM     33  C   UNL d   1      -6.758 -21.779   0.322 -0.05 +0.03    +0.115    53.602
ATOM     34  C   UNL d   1      -5.475 -21.711  -0.469 +0.00 +0.10    +0.139    53.602
ATOM     35  O   UNL d   1      -4.509 -22.366  -0.110 -0.39 -0.49    -0.650    53.602
ATOM     36  O   UNL d   1      -5.360 -20.919  -1.555 -0.24 -0.86    -0.776    53.602
ATOM     37  H   UNL d   1      -6.130 -20.608  -2.045 +0.02 +0.06    +0.167    53.602
ATOM     38  C   UNL d   1      -7.159 -17.882  -3.241 -0.32 -0.01    +0.052    53.602
ATOM     39  C   UNL d   1      -6.090 -17.035  -2.554 -0.45 -0.01    +0.115    53.602
ATOM     40  C   UNL d   1      -6.679 -16.026  -1.600 -0.39 -0.01    +0.139    53.602
ATOM     41  O   UNL d   1      -7.190 -15.007  -2.034 -0.03 +0.07    -0.650    53.602
ATOM     42  O   UNL d   1      -6.698 -16.253  -0.272 +0.04 +0.02    -0.776    53.602
ATOM     43  H   UNL d   1      -7.108 -15.631   0.341 -0.48 -0.04    +0.167    53.602
ATOM     44  C   UNL d   1     -15.874 -17.835   4.025 -0.25 -0.00    +0.004    53.602
ATOM     45  C   UNL d   1     -16.010 -17.139   5.153 -0.35 -0.00    +0.012    53.602
ATOM     46  C   UNL d   1     -14.555 -15.141  -3.593 -0.17 +0.00    +0.004    53.602
ATOM     47  C   UNL d   1     -14.335 -15.651  -4.812 -0.23 +0.00    +0.012    53.602
TER
ENDMDL
MODEL       32
USER    Run = 32
USER    Cluster Rank = 28
USER    Number of conformations in this cluster = 2
USER  
USER    RMSD from reference structure       = 41.837 A
USER  
USER    Estimated Free Energy of Binding    =   -5.23 kcal/mol  [=(1)+(2)+(3)-(4)]
USER    Estimated Inhibition Constant, Ki   =  146.93 uM (micromolar)  [Temperature = 298.15 K]
USER    
USER    (1) Final Intermolecular Energy     =   -8.21 kcal/mol
USER        vdW + Hbond + desolv Energy     =   -7.04 kcal/mol
USER        Electrostatic Energy            =   -1.17 kcal/mol
USER    (2) Final Total Internal Energy     =   -1.61 kcal/mol
USER    (3) Torsional Free Energy           =   +2.98 kcal/mol
USER    (4) Unbound System's Energy  [=(2)] =   -1.61 kcal/mol
USER    
USER    
USER  
USER    DPF = D:/Protein_go_brrr/autodock/final/mut_Y35F/heme_O2/dock.dpf
USER    NEWDPF move	heme_O2_opt.pdbqt
USER    NEWDPF about	8.287000 34.468000 -0.670000
USER    NEWDPF tran0	-17.681492 -2.298448 -1.338857
USER    NEWDPF axisangle0	0.882088 -0.076683 -0.464802 69.718498
USER    NEWDPF quaternion0	0.504168 -0.043829 -0.265663 0.820559
USER    NEWDPF dihe0	38.01 73.40 -115.55 123.47 -124.27 138.12 165.70 146.74 4.97 16.48 
USER  
USER                              x       y       z    vdW   Elec        q     RMS 
ATOM      1  C   UNL d   1     -19.413  -3.501  -1.578 -0.07 +0.03    +0.064    41.837
ATOM      2  C   UNL d   1     -17.825  -0.843   2.024 -0.22 +0.02    +0.064    41.837
ATOM      3  C   UNL d   1     -13.909   0.377  -0.481 -0.25 +0.01    +0.064    41.837
ATOM      4  C   UNL d   1     -15.765  -1.970  -4.369 -0.12 +0.01    +0.064    41.837
ATOM      5  C   UNL d   1     -19.301  -2.876  -0.394 -0.08 +0.04    +0.066    41.837
ATOM      6  C   UNL d   1     -20.233  -2.990   0.642 -0.09 -0.01    -0.021    41.837
ATOM      7  C   UNL d   1     -19.796  -2.186   1.669 -0.13 -0.01    -0.025    41.837
ATOM      8  C   UNL d   1     -18.585  -1.641   1.250 -0.17 +0.03    +0.066    41.837
ATOM      9  C   UNL d   1     -20.545  -1.952   2.963 -0.13 +0.01    +0.051    41.837
ATOM     10  C   UNL d   1     -16.536  -0.260   1.649 -0.22 +0.02    +0.066    41.837
ATOM     11  C   UNL d   1     -15.711   0.427   2.547 -0.28 -0.01    -0.021    41.837
ATOM     12  C   UNL d   1     -14.569   0.771   1.848 -0.29 +0.00    +0.000    41.837
ATOM     13  C   UNL d   1     -14.771   0.274   0.530 -0.19 +0.02    +0.070    41.837
ATOM     14  C   UNL d   1     -15.990   0.719   4.017 -0.33 +0.02    +0.052    41.837
ATOM     15  C   UNL d   1     -14.090  -0.082  -1.837 -0.20 +0.01    +0.066    41.837
ATOM     16  C   UNL d   1     -13.221   0.200  -2.890 -0.29 -0.00    -0.021    41.837
ATOM     17  C   UNL d   1     -13.730  -0.458  -4.009 -0.23 +0.00    +0.000    41.837
ATOM     18  C   UNL d   1     -14.887  -1.102  -3.549 -0.18 +0.01    +0.070    41.837
ATOM     19  C   UNL d   1     -12.025   1.108  -2.748 -0.30 -0.00    +0.052    41.837
ATOM     20  C   UNL d   1     -16.904  -2.568  -3.970 -0.10 +0.01    +0.066    41.837
ATOM     21  C   UNL d   1     -17.681  -3.389  -4.783 -0.06 -0.00    -0.025    41.837
ATOM     22  C   UNL d   1     -18.710  -3.856  -3.997 -0.05 -0.00    -0.021    41.837
ATOM     23  C   UNL d   1     -18.532  -3.286  -2.732 -0.06 +0.02    +0.066    41.837
ATOM     24  C   UNL d   1     -17.454  -3.709  -6.238 -0.05 +0.00    +0.051    41.837
ATOM     25  N   UNL d   1     -18.314  -2.015  -0.046 -0.00 -0.14    -0.248    41.837
ATOM     26  N   UNL d   1     -15.972  -0.348   0.417 -0.13 -0.07    -0.248    41.837
ATOM     27  N   UNL d   1     -15.131  -0.802  -2.247 -0.12 -0.05    -0.248    41.837
ATOM     28  N   UNL d   1     -17.460  -2.468  -2.733 -0.05 -0.09    -0.248    41.837
ATOM     29 FE   UNL d   1     -16.719  -1.415  -1.171 -0.05 +0.00    +0.000    41.837
ATOM     30  O   UNL d   1     -17.748  -0.282  -0.884 -0.10 +0.00    +0.000    41.837
ATOM     31  O   UNL d   1     -17.078  -0.387  -2.306 -0.09 +0.00    +0.000    41.837
ATOM     32  C   UNL d   1     -21.553  -3.715   0.620 -0.04 +0.01    +0.052    41.837
ATOM     33  C   UNL d   1     -21.431  -5.179   1.033 -0.06 +0.02    +0.115    41.837
ATOM     34  C   UNL d   1     -20.007  -5.674   0.984 -0.13 +0.08    +0.139    41.837
ATOM     35  O   UNL d   1     -19.271  -5.490   1.940 -0.11 -0.48    -0.650    41.837
ATOM     36  O   UNL d   1     -19.516  -6.295  -0.109 -0.20 -0.65    -0.776    41.837
ATOM     37  H   UNL d   1     -19.748  -6.016  -1.002 +0.03 +0.10    +0.167    41.837
ATOM     38  C   UNL d   1     -19.833  -4.748  -4.458 -0.02 +0.00    +0.052    41.837
ATOM     39  C   UNL d   1     -19.852  -6.087  -3.724 -0.03 +0.01    +0.115    41.837
ATOM     40  C   UNL d   1     -18.467  -6.580  -3.388 -0.12 +0.01    +0.139    41.837
ATOM     41  O   UNL d   1     -17.776  -7.086  -4.258 +0.03 +0.02    -0.650    41.837
ATOM     42  O   UNL d   1     -17.955  -6.426  -2.152 -0.15 -0.17    -0.776    41.837
ATOM     43  H   UNL d   1     -18.232  -6.987  -1.417 -0.27 -0.01    +0.167    41.837
ATOM     44  C   UNL d   1     -13.428   1.527   2.495 -0.43 +0.00    +0.004    41.837
ATOM     45  C   UNL d   1     -12.689   1.156   3.540 -0.52 +0.00    +0.012    41.837
ATOM     46  C   UNL d   1     -13.263  -0.479  -5.440 -0.19 +0.00    +0.004    41.837
ATOM     47  C   UNL d   1     -12.821  -1.524  -6.152 -0.19 +0.00    +0.012    41.837
TER
ENDMDL
MODEL      100
USER    Run = 100
USER    Cluster Rank = 29
USER    Number of conformations in this cluster = 1
USER  
USER    RMSD from reference structure       = 29.269 A
USER  
USER    Estimated Free Energy of Binding    =   -5.23 kcal/mol  [=(1)+(2)+(3)-(4)]
USER    Estimated Inhibition Constant, Ki   =  147.73 uM (micromolar)  [Temperature = 298.15 K]
USER    
USER    (1) Final Intermolecular Energy     =   -8.21 kcal/mol
USER        vdW + Hbond + desolv Energy     =   -3.83 kcal/mol
USER        Electrostatic Energy            =   -4.38 kcal/mol
USER    (2) Final Total Internal Energy     =   -0.58 kcal/mol
USER    (3) Torsional Free Energy           =   +2.98 kcal/mol
USER    (4) Unbound System's Energy  [=(2)] =   -0.58 kcal/mol
USER    
USER    
USER  
USER    DPF = D:/Protein_go_brrr/autodock/final/mut_Y35F/heme_O2/dock.dpf
USER    NEWDPF move	heme_O2_opt.pdbqt
USER    NEWDPF about	8.287000 34.468000 -0.670000
USER    NEWDPF tran0	-14.390918 12.420092 8.321666
USER    NEWDPF axisangle0	-0.746634 -0.599808 -0.287696 136.524133
USER    NEWDPF quaternion0	-0.693539 -0.557154 -0.267237 0.370362
USER    NEWDPF dihe0	62.41 -55.77 -22.99 -113.44 -144.21 -70.71 16.72 116.50 179.75 -161.26 
USER  
USER                              x       y       z    vdW   Elec        q     RMS 
ATOM      1  C   UNL d   1     -15.113  10.714   9.355 -0.04 +0.05    +0.064    29.269
ATOM      2  C   UNL d   1     -13.499  11.340   4.932 -0.04 +0.01    +0.064    29.269
ATOM      3  C   UNL d   1     -12.817  16.027   5.746 -0.11 -0.01    +0.064    29.269
ATOM      4  C   UNL d   1     -14.025  15.304  10.445 -0.03 -0.01    +0.064    29.269
ATOM      5  C   UNL d   1     -14.728  10.502   8.086 -0.04 +0.04    +0.066    29.269
ATOM      6  C   UNL d   1     -14.792   9.261   7.446 -0.04 -0.01    -0.021    29.269
ATOM      7  C   UNL d   1     -14.285   9.432   6.180 -0.03 -0.01    -0.025    29.269
ATOM      8  C   UNL d   1     -13.970  10.783   6.064 -0.03 +0.02    +0.066    29.269
ATOM      9  C   UNL d   1     -14.097   8.324   5.166 -0.08 +0.02    +0.051    29.269
ATOM     10  C   UNL d   1     -13.173  12.755   4.744 -0.09 +0.00    +0.066    29.269
ATOM     11  C   UNL d   1     -12.844  13.310   3.503 -0.10 +0.00    -0.021    29.269
ATOM     12  C   UNL d   1     -12.662  14.664   3.713 -0.13 -0.00    +0.000    29.269
ATOM     13  C   UNL d   1     -12.882  14.861   5.105 -0.10 -0.01    +0.070    29.269
ATOM     14  C   UNL d   1     -12.736  12.584   2.167 -0.06 -0.00    +0.052    29.269
ATOM     15  C   UNL d   1     -12.999  16.263   7.158 -0.05 -0.02    +0.066    29.269
ATOM     16  C   UNL d   1     -12.757  17.480   7.794 -0.12 +0.01    -0.021    29.269
ATOM     17  C   UNL d   1     -13.093  17.297   9.135 -0.13 -0.00    +0.000    29.269
ATOM     18  C   UNL d   1     -13.523  15.965   9.217 -0.08 -0.02    +0.070    29.269
ATOM     19  C   UNL d   1     -12.180  18.678   7.084 -0.17 -0.03    +0.052    29.269
ATOM     20  C   UNL d   1     -14.404  14.017  10.568 -0.02 +0.01    +0.066    29.269
ATOM     21  C   UNL d   1     -14.886  13.455  11.747 -0.01 -0.00    -0.025    29.269
ATOM     22  C   UNL d   1     -15.227  12.155  11.449 -0.03 -0.01    -0.021    29.269
ATOM     23  C   UNL d   1     -14.922  11.966  10.097 -0.04 +0.03    +0.066    29.269
ATOM     24  C   UNL d   1     -15.011  14.124  13.092 -0.00 +0.00    +0.051    29.269
ATOM     25  N   UNL d   1     -14.182  11.428   7.261 -0.01 -0.09    -0.248    29.269
ATOM     26  N   UNL d   1     -13.188  13.693   5.725 -0.08 +0.01    -0.248    29.269
ATOM     27  N   UNL d   1     -13.388  15.332   8.024 -0.07 +0.03    -0.248    29.269
ATOM     28  N   UNL d   1     -14.381  13.087   9.577 -0.01 -0.06    -0.248    29.269
ATOM     29 FE   UNL d   1     -13.788  13.390   7.666 -0.02 +0.00    +0.000    29.269
ATOM     30  O   UNL d   1     -12.512  12.522   7.464 -0.19 +0.00    +0.000    29.269
ATOM     31  O   UNL d   1     -12.537  13.622   8.591 -0.20 +0.00    +0.000    29.269
ATOM     32  C   UNL d   1     -15.185   7.934   8.043 -0.06 +0.04    +0.052    29.269
ATOM     33  C   UNL d   1     -13.984   7.103   8.482 -0.08 +0.16    +0.115    29.269
ATOM     34  C   UNL d   1     -14.347   5.662   8.747 -0.07 +0.24    +0.139    29.269
ATOM     35  O   UNL d   1     -14.735   4.959   7.828 -0.43 -1.18    -0.650    29.269
ATOM     36  O   UNL d   1     -14.279   5.137   9.987 +0.15 -1.67    -0.776    29.269
ATOM     37  H   UNL d   1     -14.826   5.464  10.711 +0.03 +0.24    +0.167    29.269
ATOM     38  C   UNL d   1     -15.754  11.138  12.428 -0.03 +0.03    +0.052    29.269
ATOM     39  C   UNL d   1     -14.785  10.883  13.580 -0.06 +0.06    +0.115    29.269
ATOM     40  C   UNL d   1     -13.491  10.260  13.119 -0.04 +0.19    +0.139    29.269
ATOM     41  O   UNL d   1     -12.669  10.939  12.525 -0.64 -1.16    -0.650    29.269
ATOM     42  O   UNL d   1     -13.201   8.974  13.396 -0.09 -1.44    -0.776    29.269
ATOM     43  H   UNL d   1     -13.234   8.632  14.297 +0.02 +0.16    +0.167    29.269
ATOM     44  C   UNL d   1     -12.299  15.611   2.588 -0.07 -0.00    +0.004    29.269
ATOM     45  C   UNL d   1     -12.567  16.913   2.496 -0.10 -0.00    +0.012    29.269
ATOM     46  C   UNL d   1     -12.991  18.227  10.315 -0.11 -0.00    +0.004    29.269
ATOM     47  C   UNL d   1     -12.294  18.056  11.446 -0.09 -0.01    +0.012    29.269
TER
ENDMDL
MODEL       62
USER    Run = 62
USER    Cluster Rank = 30
USER    Number of conformations in this cluster = 1
USER  
USER    RMSD from reference structure       = 41.912 A
USER  
USER    Estimated Free Energy of Binding    =   -5.22 kcal/mol  [=(1)+(2)+(3)-(4)]
USER    Estimated Inhibition Constant, Ki   =  149.28 uM (micromolar)  [Temperature = 298.15 K]
USER    
USER    (1) Final Intermolecular Energy     =   -8.20 kcal/mol
USER        vdW + Hbond + desolv Energy     =   -7.40 kcal/mol
USER        Electrostatic Energy            =   -0.81 kcal/mol
USER    (2) Final Total Internal Energy     =   -0.64 kcal/mol
USER    (3) Torsional Free Energy           =   +2.98 kcal/mol
USER    (4) Unbound System's Energy  [=(2)] =   -0.64 kcal/mol
USER    
USER    
USER  
USER    DPF = D:/Protein_go_brrr/autodock/final/mut_Y35F/heme_O2/dock.dpf
USER    NEWDPF move	heme_O2_opt.pdbqt
USER    NEWDPF about	8.287000 34.468000 -0.670000
USER    NEWDPF tran0	-14.755798 -3.121047 -6.508492
USER    NEWDPF axisangle0	0.780330 0.322387 0.535866 -128.452901
USER    NEWDPF quaternion0	0.702702 0.290316 0.482557 -0.434815
USER    NEWDPF dihe0	-121.80 56.71 25.61 -85.51 16.33 -162.19 12.86 -70.67 -168.56 170.10 
USER  
USER                              x       y       z    vdW   Elec        q     RMS 
ATOM      1  C   UNL d   1     -16.191  -4.677  -6.643 -0.05 +0.00    +0.064    41.912
ATOM      2  C   UNL d   1     -12.280  -3.695  -9.152 -0.17 +0.00    +0.064    41.912
ATOM      3  C   UNL d   1     -11.462   0.237  -6.513 -0.16 +0.00    +0.064    41.912
ATOM      4  C   UNL d   1     -15.217  -1.025  -3.618 -0.15 +0.01    +0.064    41.912
ATOM      5  C   UNL d   1     -15.193  -4.732  -7.540 -0.10 +0.00    +0.066    41.912
ATOM      6  C   UNL d   1     -15.074  -5.721  -8.520 -0.15 -0.00    -0.021    41.912
ATOM      7  C   UNL d   1     -13.919  -5.463  -9.219 -0.18 -0.00    -0.025    41.912
ATOM      8  C   UNL d   1     -13.389  -4.294  -8.678 -0.16 +0.00    +0.066    41.912
ATOM      9  C   UNL d   1     -13.364  -6.332 -10.326 -0.23 +0.00    +0.051    41.912
ATOM     10  C   UNL d   1     -11.689  -2.457  -8.642 -0.17 +0.01    +0.066    41.912
ATOM     11  C   UNL d   1     -10.633  -1.790  -9.273 -0.18 -0.00    -0.021    41.912
ATOM     12  C   UNL d   1     -10.395  -0.645  -8.537 -0.05 +0.00    +0.000    41.912
ATOM     13  C   UNL d   1     -11.332  -0.684  -7.467 -0.11 +0.01    +0.070    41.912
ATOM     14  C   UNL d   1      -9.901  -2.215 -10.541 -0.14 +0.01    +0.052    41.912
ATOM     15  C   UNL d   1     -12.373   0.216  -5.394 -0.16 +0.00    +0.066    41.912
ATOM     16  C   UNL d   1     -12.349   1.127  -4.338 -0.20 -0.00    -0.021    41.912
ATOM     17  C   UNL d   1     -13.411   0.786  -3.499 -0.20 +0.00    +0.000    41.912
ATOM     18  C   UNL d   1     -14.012  -0.320  -4.116 -0.16 +0.01    +0.070    41.912
ATOM     19  C   UNL d   1     -11.294   2.195  -4.196 -0.22 +0.00    +0.052    41.912
ATOM     20  C   UNL d   1     -15.793  -2.115  -4.161 -0.14 +0.01    +0.066    41.912
ATOM     21  C   UNL d   1     -16.939  -2.724  -3.657 -0.12 -0.01    -0.025    41.912
ATOM     22  C   UNL d   1     -17.247  -3.750  -4.522 -0.10 -0.00    -0.021    41.912
ATOM     23  C   UNL d   1     -16.263  -3.740  -5.516 -0.10 +0.01    +0.066    41.912
ATOM     24  C   UNL d   1     -17.699  -2.349  -2.411 -0.04 +0.02    +0.051    41.912
ATOM     25  N   UNL d   1     -14.139  -3.881  -7.602 -0.09 -0.02    -0.248    41.912
ATOM     26  N   UNL d   1     -12.112  -1.792  -7.536 -0.11 -0.03    -0.248    41.912
ATOM     27  N   UNL d   1     -13.324  -0.698  -5.224 -0.11 -0.02    -0.248    41.912
ATOM     28  N   UNL d   1     -15.356  -2.773  -5.268 -0.09 -0.03    -0.248    41.912
ATOM     29 FE   UNL d   1     -13.746  -2.284  -6.392 -0.04 +0.00    +0.000    41.912
ATOM     30  O   UNL d   1     -12.734  -3.456  -6.234 -0.42 +0.00    +0.000    41.912
ATOM     31  O   UNL d   1     -13.222  -2.670  -4.960 -0.34 +0.00    +0.000    41.912
ATOM     32  C   UNL d   1     -15.937  -6.943  -8.707 -0.19 +0.00    +0.052    41.912
ATOM     33  C   UNL d   1     -15.500  -8.116  -7.834 -0.25 -0.00    +0.115    41.912
ATOM     34  C   UNL d   1     -16.195  -9.401  -8.208 -0.27 +0.01    +0.139    41.912
ATOM     35  O   UNL d   1     -16.654 -10.116  -7.332 -0.08 -0.04    -0.650    41.912
ATOM     36  O   UNL d   1     -16.298  -9.797  -9.494 -0.00 -0.07    -0.776    41.912
ATOM     37  H   UNL d   1     -17.152  -9.954  -9.913 +0.03 +0.01    +0.167    41.912
ATOM     38  C   UNL d   1     -18.386  -4.723  -4.360 -0.08 +0.01    +0.052    41.912
ATOM     39  C   UNL d   1     -17.998  -5.940  -3.524 -0.15 +0.01    +0.115    41.912
ATOM     40  C   UNL d   1     -18.637  -5.928  -2.157 -0.02 +0.07    +0.139    41.912
ATOM     41  O   UNL d   1     -19.097  -4.888  -1.713 -0.30 -0.57    -0.650    41.912
ATOM     42  O   UNL d   1     -18.758  -7.059  -1.435 -0.24 -0.07    -0.776    41.912
ATOM     43  H   UNL d   1     -17.986  -7.577  -1.177 -0.29 -0.16    +0.167    41.912
ATOM     44  C   UNL d   1      -9.317   0.347  -8.920 -0.17 +0.00    +0.004    41.912
ATOM     45  C   UNL d   1      -8.720   1.250  -8.142 -0.23 +0.00    +0.012    41.912
ATOM     46  C   UNL d   1     -13.853   1.363  -2.181 -0.20 +0.00    +0.004    41.912
ATOM     47  C   UNL d   1     -13.506   0.972  -0.948 -0.32 +0.00    +0.012    41.912
TER
ENDMDL
MODEL       13
USER    Run = 13
USER    Cluster Rank = 31
USER    Number of conformations in this cluster = 1
USER  
USER    RMSD from reference structure       = 36.711 A
USER  
USER    Estimated Free Energy of Binding    =   -5.19 kcal/mol  [=(1)+(2)+(3)-(4)]
USER    Estimated Inhibition Constant, Ki   =  156.41 uM (micromolar)  [Temperature = 298.15 K]
USER    
USER    (1) Final Intermolecular Energy     =   -8.17 kcal/mol
USER        vdW + Hbond + desolv Energy     =   -7.15 kcal/mol
USER        Electrostatic Energy            =   -1.03 kcal/mol
USER    (2) Final Total Internal Energy     =   -1.68 kcal/mol
USER    (3) Torsional Free Energy           =   +2.98 kcal/mol
USER    (4) Unbound System's Energy  [=(2)] =   -1.68 kcal/mol
USER    
USER    
USER  
USER    DPF = D:/Protein_go_brrr/autodock/final/mut_Y35F/heme_O2/dock.dpf
USER    NEWDPF move	heme_O2_opt.pdbqt
USER    NEWDPF about	8.287000 34.468000 -0.670000
USER    NEWDPF tran0	-14.838615 2.312099 -0.311197
USER    NEWDPF axisangle0	0.752909 -0.611182 -0.244100 136.390621
USER    NEWDPF quaternion0	0.699042 -0.567455 -0.226636 0.371444
USER    NEWDPF dihe0	180.00 24.52 -67.40 125.43 -97.02 -172.92 126.06 130.25 28.51 30.12 
USER  
USER                              x       y       z    vdW   Elec        q     RMS 
ATOM      1  C   UNL d   1     -15.975   2.811   1.409 -0.04 +0.01    +0.064    36.711
ATOM      2  C   UNL d   1     -12.667   5.174  -1.047 -0.11 +0.01    +0.064    36.711
ATOM      3  C   UNL d   1     -12.121   1.467  -4.056 -0.22 +0.00    +0.064    36.711
ATOM      4  C   UNL d   1     -15.864  -0.789  -1.826 -0.09 +0.02    +0.064    36.711
ATOM      5  C   UNL d   1     -15.121   3.757   0.985 -0.04 +0.01    +0.066    36.711
ATOM      6  C   UNL d   1     -14.951   4.996   1.611 -0.06 -0.00    -0.021    36.711
ATOM      7  C   UNL d   1     -14.025   5.698   0.875 -0.08 -0.00    -0.025    36.711
ATOM      8  C   UNL d   1     -13.619   4.850  -0.151 -0.10 +0.01    +0.066    36.711
ATOM      9  C   UNL d   1     -13.597   7.122   1.155 +0.14 +0.01    +0.051    36.711
ATOM     10  C   UNL d   1     -12.182   4.318  -2.132 -0.08 +0.01    +0.066    36.711
ATOM     11  C   UNL d   1     -11.079   4.639  -2.931 -0.13 -0.00    -0.021    36.711
ATOM     12  C   UNL d   1     -10.895   3.574  -3.793 -0.16 +0.00    +0.000    36.711
ATOM     13  C   UNL d   1     -11.927   2.649  -3.472 -0.13 +0.00    +0.070    36.711
ATOM     14  C   UNL d   1     -10.221   5.896  -2.856 -0.14 +0.01    +0.052    36.711
ATOM     15  C   UNL d   1     -13.174   0.518  -3.785 -0.20 +0.00    +0.066    36.711
ATOM     16  C   UNL d   1     -13.421  -0.627  -4.542 -0.22 -0.00    -0.021    36.711
ATOM     17  C   UNL d   1     -14.485  -1.286  -3.926 -0.23 +0.00    +0.000    36.711
ATOM     18  C   UNL d   1     -14.810  -0.484  -2.822 -0.18 +0.01    +0.070    36.711
ATOM     19  C   UNL d   1     -12.665  -0.957  -5.804 -0.15 +0.01    +0.052    36.711
ATOM     20  C   UNL d   1     -16.230  -0.021  -0.782 -0.12 +0.01    +0.066    36.711
ATOM     21  C   UNL d   1     -17.219  -0.369   0.134 -0.14 -0.01    -0.025    36.711
ATOM     22  C   UNL d   1     -17.246   0.632   1.079 -0.10 -0.00    -0.021    36.711
ATOM     23  C   UNL d   1     -16.280   1.567   0.693 -0.06 +0.01    +0.066    36.711
ATOM     24  C   UNL d   1     -18.096  -1.594   0.107 -0.12 +0.02    +0.051    36.711
ATOM     25  N   UNL d   1     -14.342   3.680  -0.121 -0.04 -0.03    -0.248    36.711
ATOM     26  N   UNL d   1     -12.708   3.112  -2.463 -0.05 -0.02    -0.248    36.711
ATOM     27  N   UNL d   1     -14.054   0.643  -2.795 -0.10 -0.02    -0.248    36.711
ATOM     28  N   UNL d   1     -15.697   1.189  -0.463 -0.05 -0.04    -0.248    36.711
ATOM     29 FE   UNL d   1     -14.213   2.141  -1.458 -0.03 +0.00    +0.000    36.711
ATOM     30  O   UNL d   1     -14.847   3.435  -2.048 -0.05 +0.00    +0.000    36.711
ATOM     31  O   UNL d   1     -15.440   2.028  -2.435 -0.06 +0.00    +0.000    36.711
ATOM     32  C   UNL d   1     -15.728   5.556   2.774 -0.04 +0.01    +0.052    36.711
ATOM     33  C   UNL d   1     -14.885   5.694   4.038 -0.07 +0.04    +0.115    36.711
ATOM     34  C   UNL d   1     -14.251   4.389   4.452 -0.15 +0.06    +0.139    36.711
ATOM     35  O   UNL d   1     -13.040   4.257   4.380 -0.42 -0.42    -0.650    36.711
ATOM     36  O   UNL d   1     -14.997   3.348   4.876 +0.08 -0.30    -0.776    36.711
ATOM     37  H   UNL d   1     -14.601   2.512   5.146 -0.39 +0.04    +0.167    36.711
ATOM     38  C   UNL d   1     -18.193   0.712   2.248 -0.12 +0.01    +0.052    36.711
ATOM     39  C   UNL d   1     -17.474   1.021   3.559 -0.17 +0.03    +0.115    36.711
ATOM     40  C   UNL d   1     -16.303   0.101   3.805 -0.20 +0.05    +0.139    36.711
ATOM     41  O   UNL d   1     -16.312  -1.028   3.342 -0.37 -0.29    -0.650    36.711
ATOM     42  O   UNL d   1     -15.220   0.521   4.487 -0.41 -0.31    -0.776    36.711
ATOM     43  H   UNL d   1     -15.280   1.221   5.148 -0.52 +0.03    +0.167    36.711
ATOM     44  C   UNL d   1      -9.779   3.552  -4.816 -0.28 +0.00    +0.004    36.711
ATOM     45  C   UNL d   1      -8.673   2.808  -4.805 -0.40 -0.00    +0.012    36.711
ATOM     46  C   UNL d   1     -15.231  -2.535  -4.312 -0.25 +0.00    +0.004    36.711
ATOM     47  C   UNL d   1     -15.339  -3.681  -3.627 -0.32 +0.00    +0.012    36.711
TER
ENDMDL
MODEL       47
USER    Run = 47
USER    Cluster Rank = 32
USER    Number of conformations in this cluster = 1
USER  
USER    RMSD from reference structure       = 38.079 A
USER  
USER    Estimated Free Energy of Binding    =   -5.17 kcal/mol  [=(1)+(2)+(3)-(4)]
USER    Estimated Inhibition Constant, Ki   =  161.39 uM (micromolar)  [Temperature = 298.15 K]
USER    
USER    (1) Final Intermolecular Energy     =   -8.16 kcal/mol
USER        vdW + Hbond + desolv Energy     =   -6.37 kcal/mol
USER        Electrostatic Energy            =   -1.79 kcal/mol
USER    (2) Final Total Internal Energy     =   -1.45 kcal/mol
USER    (3) Torsional Free Energy           =   +2.98 kcal/mol
USER    (4) Unbound System's Energy  [=(2)] =   -1.45 kcal/mol
USER    
USER    
USER  
USER    DPF = D:/Protein_go_brrr/autodock/final/mut_Y35F/heme_O2/dock.dpf
USER    NEWDPF move	heme_O2_opt.pdbqt
USER    NEWDPF about	8.287000 34.468000 -0.670000
USER    NEWDPF tran0	17.928809 -4.998146 1.319301
USER    NEWDPF axisangle0	-0.735417 -0.665573 0.127176 -66.503552
USER    NEWDPF quaternion0	-0.403243 -0.364947 0.069733 -0.836269
USER    NEWDPF dihe0	86.11 -75.46 53.81 -108.69 82.54 -30.80 49.37 15.78 -29.06 11.11 
USER  
USER                              x       y       z    vdW   Elec        q     RMS 
ATOM      1  C   UNL d   1      17.215  -5.865  -0.480 -0.14 +0.02    +0.064    38.079
ATOM      2  C   UNL d   1      15.110  -4.884   3.663 -0.26 +0.01    +0.064    38.079
ATOM      3  C   UNL d   1      19.230  -3.183   5.459 -0.05 +0.01    +0.064    38.079
ATOM      4  C   UNL d   1      21.293  -3.745   1.043 -0.08 +0.01    +0.064    38.079
ATOM      5  C   UNL d   1      16.306  -5.736   0.499 -0.20 +0.01    +0.066    38.079
ATOM      6  C   UNL d   1      14.973  -6.141   0.389 -0.21 -0.00    -0.021    38.079
ATOM      7  C   UNL d   1      14.352  -5.817   1.572 -0.40 -0.00    -0.025    38.079
ATOM      8  C   UNL d   1      15.334  -5.268   2.391 -0.29 +0.01    +0.066    38.079
ATOM      9  C   UNL d   1      12.879  -6.013   1.858 -0.39 -0.00    +0.051    38.079
ATOM     10  C   UNL d   1      16.106  -4.323   4.577 -0.16 +0.01    +0.066    38.079
ATOM     11  C   UNL d   1      15.860  -4.094   5.936 -0.16 -0.01    -0.021    38.079
ATOM     12  C   UNL d   1      17.042  -3.621   6.475 -0.07 +0.00    +0.000    38.079
ATOM     13  C   UNL d   1      17.958  -3.574   5.388 -0.06 +0.01    +0.070    38.079
ATOM     14  C   UNL d   1      14.561  -4.344   6.693 -0.20 +0.02    +0.052    38.079
ATOM     15  C   UNL d   1      20.179  -3.088   4.376 -0.05 +0.01    +0.066    38.079
ATOM     16  C   UNL d   1      21.447  -2.516   4.483 -0.03 -0.00    -0.021    38.079
ATOM     17  C   UNL d   1      22.053  -2.664   3.236 -0.05 +0.00    +0.000    38.079
ATOM     18  C   UNL d   1      21.098  -3.326   2.451 -0.09 +0.01    +0.070    38.079
ATOM     19  C   UNL d   1      21.939  -1.837   5.737 -0.01 +0.00    +0.052    38.079
ATOM     20  C   UNL d   1      20.383  -4.343   0.249 -0.11 +0.01    +0.066    38.079
ATOM     21  C   UNL d   1      20.630  -4.731  -1.065 -0.13 -0.01    -0.025    38.079
ATOM     22  C   UNL d   1      19.488  -5.361  -1.506 -0.19 -0.01    -0.021    38.079
ATOM     23  C   UNL d   1      18.577  -5.318  -0.447 -0.19 +0.02    +0.066    38.079
ATOM     24  C   UNL d   1      21.890  -4.508  -1.860 -0.13 +0.01    +0.051    38.079
ATOM     25  N   UNL d   1      16.523  -5.158   1.707 -0.15 -0.04    -0.248    38.079
ATOM     26  N   UNL d   1      17.379  -3.999   4.236 -0.07 -0.04    -0.248    38.079
ATOM     27  N   UNL d   1      19.941  -3.508   3.137 -0.05 -0.03    -0.248    38.079
ATOM     28  N   UNL d   1      19.109  -4.659   0.603 -0.11 -0.05    -0.248    38.079
ATOM     29 FE   UNL d   1      18.253  -4.330   2.407 -0.04 +0.00    +0.000    38.079
ATOM     30  O   UNL d   1      17.114  -3.296   2.166 -0.36 +0.00    +0.000    38.079
ATOM     31  O   UNL d   1      18.598  -2.927   1.786 -0.34 +0.00    +0.000    38.079
ATOM     32  C   UNL d   1      14.272  -6.684  -0.829 -0.29 +0.01    +0.052    38.079
ATOM     33  C   UNL d   1      14.978  -7.898  -1.427 -0.18 +0.02    +0.115    38.079
ATOM     34  C   UNL d   1      15.136  -7.792  -2.923 -0.13 +0.08    +0.139    38.079
ATOM     35  O   UNL d   1      14.150  -7.848  -3.640 -0.00 -0.25    -0.650    38.079
ATOM     36  O   UNL d   1      16.352  -7.663  -3.494 -0.44 -1.01    -0.776    38.079
ATOM     37  H   UNL d   1      16.896  -8.428  -3.715 +0.02 +0.14    +0.167    38.079
ATOM     38  C   UNL d   1      19.269  -5.914  -2.891 -0.18 +0.04    +0.052    38.079
ATOM     39  C   UNL d   1      19.159  -7.437  -2.899 -0.09 +0.07    +0.115    38.079
ATOM     40  C   UNL d   1      19.293  -8.017  -4.285 -0.06 +0.09    +0.139    38.079
ATOM     41  O   UNL d   1      20.257  -8.714  -4.559 +0.01 -0.20    -0.650    38.079
ATOM     42  O   UNL d   1      18.339  -7.823  -5.216 -0.07 -0.99    -0.776    38.079
ATOM     43  H   UNL d   1      17.487  -8.272  -5.167 +0.01 +0.20    +0.167    38.079
ATOM     44  C   UNL d   1      17.170  -3.265   7.941 -0.04 +0.00    +0.004    38.079
ATOM     45  C   UNL d   1      17.667  -2.148   8.472 -0.02 +0.00    +0.012    38.079
ATOM     46  C   UNL d   1      23.390  -2.196   2.725 -0.05 +0.00    +0.004    38.079
ATOM     47  C   UNL d   1      23.642  -1.308   1.755 -0.08 +0.00    +0.012    38.079
TER
ENDMDL
MODEL        2
USER    Run = 2
USER    Cluster Rank = 33
USER    Number of conformations in this cluster = 1
USER  
USER    RMSD from reference structure       = 56.716 A
USER  
USER    Estimated Free Energy of Binding    =   -5.13 kcal/mol  [=(1)+(2)+(3)-(4)]
USER    Estimated Inhibition Constant, Ki   =  174.53 uM (micromolar)  [Temperature = 298.15 K]
USER    
USER    (1) Final Intermolecular Energy     =   -8.11 kcal/mol
USER        vdW + Hbond + desolv Energy     =   -4.99 kcal/mol
USER        Electrostatic Energy            =   -3.12 kcal/mol
USER    (2) Final Total Internal Energy     =   -1.39 kcal/mol
USER    (3) Torsional Free Energy           =   +2.98 kcal/mol
USER    (4) Unbound System's Energy  [=(2)] =   -1.39 kcal/mol
USER    
USER    
USER  
USER    DPF = D:/Protein_go_brrr/autodock/final/mut_Y35F/heme_O2/dock.dpf
USER    NEWDPF move	heme_O2_opt.pdbqt
USER    NEWDPF about	8.287000 34.468000 -0.670000
USER    NEWDPF tran0	-9.329280 -21.289070 -10.085347
USER    NEWDPF axisangle0	-0.594419 -0.761910 -0.257213 -117.337300
USER    NEWDPF quaternion0	-0.507738 -0.650804 -0.219705 -0.519987
USER    NEWDPF dihe0	71.36 49.77 62.36 23.51 -17.41 34.85 -88.01 55.50 165.83 -164.97 
USER  
USER                              x       y       z    vdW   Elec        q     RMS 
ATOM      1  C   UNL d   1      -8.536 -22.515 -11.624 -0.05 +0.02    +0.064    56.716
ATOM      2  C   UNL d   1     -12.577 -20.047 -11.251 -0.02 +0.00    +0.064    56.716
ATOM      3  C   UNL d   1     -11.383 -18.583  -6.832 +0.03 +0.00    +0.064    56.716
ATOM      4  C   UNL d   1      -7.007 -20.728  -7.392 -0.19 -0.00    +0.064    56.716
ATOM      5  C   UNL d   1      -9.732 -21.962 -11.884 -0.04 +0.01    +0.066    56.716
ATOM      6  C   UNL d   1     -10.446 -22.162 -13.068 -0.02 -0.00    -0.021    56.716
ATOM      7  C   UNL d   1     -11.596 -21.413 -12.979 -0.01 -0.00    -0.025    56.716
ATOM      8  C   UNL d   1     -11.576 -20.815 -11.723 -0.02 +0.01    +0.066    56.716
ATOM      9  C   UNL d   1     -12.628 -21.278 -14.078 -0.00 +0.00    +0.051    56.716
ATOM     10  C   UNL d   1     -12.623 -19.412  -9.933 -0.04 +0.00    +0.066    56.716
ATOM     11  C   UNL d   1     -13.756 -18.762  -9.431 -0.05 -0.00    -0.021    56.716
ATOM     12  C   UNL d   1     -13.437 -18.348  -8.151 -0.09 +0.00    +0.000    56.716
ATOM     13  C   UNL d   1     -12.094 -18.768  -7.944 -0.05 +0.00    +0.070    56.716
ATOM     14  C   UNL d   1     -15.095 -18.568 -10.133 -0.03 +0.00    +0.052    56.716
ATOM     15  C   UNL d   1     -10.010 -18.961  -6.597 -0.13 -0.00    +0.066    56.716
ATOM     16  C   UNL d   1      -9.271 -18.593  -5.473 -0.21 +0.00    -0.021    56.716
ATOM     17  C   UNL d   1      -8.019 -19.193  -5.611 -0.24 -0.00    +0.000    56.716
ATOM     18  C   UNL d   1      -8.090 -19.892  -6.824 -0.21 -0.00    +0.070    56.716
ATOM     19  C   UNL d   1      -9.800 -17.668  -4.406 -0.25 -0.00    +0.052    56.716
ATOM     20  C   UNL d   1      -7.026 -21.377  -8.573 -0.15 +0.00    +0.066    56.716
ATOM     21  C   UNL d   1      -5.981 -22.164  -9.048 -0.11 -0.00    -0.025    56.716
ATOM     22  C   UNL d   1      -6.410 -22.704 -10.240 -0.09 -0.00    -0.021    56.716
ATOM     23  C   UNL d   1      -7.699 -22.209 -10.458 -0.08 +0.01    +0.066    56.716
ATOM     24  C   UNL d   1      -4.640 -22.388  -8.399 -0.11 -0.00    +0.051    56.716
ATOM     25  N   UNL d   1     -10.397 -21.101 -11.074 -0.02 -0.03    -0.248    56.716
ATOM     26  N   UNL d   1     -11.605 -19.410  -9.035 -0.04 -0.01    -0.248    56.716
ATOM     27  N   UNL d   1      -9.279 -19.679  -7.444 -0.11 +0.01    -0.248    56.716
ATOM     28  N   UNL d   1      -8.052 -21.367  -9.464 -0.07 -0.02    -0.248    56.716
ATOM     29 FE   UNL d   1      -9.814 -20.395  -9.249 -0.02 +0.00    +0.000    56.716
ATOM     30  O   UNL d   1      -9.850 -19.307 -10.362 -0.19 +0.00    +0.000    56.716
ATOM     31  O   UNL d   1      -8.680 -19.307  -9.307 -0.25 -0.00    +0.000    56.716
ATOM     32  C   UNL d   1     -10.005 -22.917 -14.296 -0.02 +0.01    +0.052    56.716
ATOM     33  C   UNL d   1      -9.739 -22.003 -15.489 -0.03 +0.04    +0.115    56.716
ATOM     34  C   UNL d   1      -8.310 -21.523 -15.538 -0.03 +0.14    +0.139    56.716
ATOM     35  O   UNL d   1      -8.002 -20.624 -16.305 -0.13 -0.67    -0.650    56.716
ATOM     36  O   UNL d   1      -7.352 -22.084 -14.772 -0.50 -1.35    -0.776    56.716
ATOM     37  H   UNL d   1      -7.012 -22.969 -14.947 -0.00 +0.26    +0.167    56.716
ATOM     38  C   UNL d   1      -5.597 -23.592 -11.145 -0.07 +0.01    +0.052    56.716
ATOM     39  C   UNL d   1      -4.360 -22.885 -11.697 -0.10 +0.05    +0.115    56.716
ATOM     40  C   UNL d   1      -4.292 -22.935 -13.203 +0.04 +0.16    +0.139    56.716
ATOM     41  O   UNL d   1      -3.362 -22.401 -13.785 -0.38 -1.03    -0.650    56.716
ATOM     42  O   UNL d   1      -5.215 -23.605 -13.919 -0.15 -0.95    -0.776    56.716
ATOM     43  H   UNL d   1      -6.160 -23.446 -13.799 +0.00 +0.18    +0.167    56.716
ATOM     44  C   UNL d   1     -14.426 -17.607  -7.276 -0.13 +0.00    +0.004    56.716
ATOM     45  C   UNL d   1     -14.287 -16.404  -6.720 -0.24 +0.00    +0.012    56.716
ATOM     46  C   UNL d   1      -6.786 -19.115  -4.751 -0.10 -0.00    +0.004    56.716
ATOM     47  C   UNL d   1      -6.685 -18.693  -3.484 -0.31 -0.00    +0.012    56.716
TER
ENDMDL
MODEL       38
USER    Run = 38
USER    Cluster Rank = 34
USER    Number of conformations in this cluster = 1
USER  
USER    RMSD from reference structure       = 50.510 A
USER  
USER    Estimated Free Energy of Binding    =   -5.12 kcal/mol  [=(1)+(2)+(3)-(4)]
USER    Estimated Inhibition Constant, Ki   =  175.14 uM (micromolar)  [Temperature = 298.15 K]
USER    
USER    (1) Final Intermolecular Energy     =   -8.11 kcal/mol
USER        vdW + Hbond + desolv Energy     =   -7.63 kcal/mol
USER        Electrostatic Energy            =   -0.48 kcal/mol
USER    (2) Final Total Internal Energy     =   -2.10 kcal/mol
USER    (3) Torsional Free Energy           =   +2.98 kcal/mol
USER    (4) Unbound System's Energy  [=(2)] =   -2.10 kcal/mol
USER    
USER    
USER  
USER    DPF = D:/Protein_go_brrr/autodock/final/mut_Y35F/heme_O2/dock.dpf
USER    NEWDPF move	heme_O2_opt.pdbqt
USER    NEWDPF about	8.287000 34.468000 -0.670000
USER    NEWDPF tran0	2.349994 -16.317766 -9.408385
USER    NEWDPF axisangle0	-0.700577 0.169584 -0.693133 -175.499560
USER    NEWDPF quaternion0	-0.700036 0.169454 -0.692599 -0.039264
USER    NEWDPF dihe0	-160.41 -7.21 -36.58 0.92 39.00 -122.43 -78.94 -42.75 -175.11 115.80 
USER  
USER                              x       y       z    vdW   Elec        q     RMS 
ATOM      1  C   UNL d   1       1.485 -16.194 -11.341 -0.24 -0.01    +0.064    50.510
ATOM      2  C   UNL d   1       5.608 -14.641  -9.567 -0.20 -0.02    +0.064    50.510
ATOM      3  C   UNL d   1       4.491 -16.361  -5.220 -0.22 -0.02    +0.064    50.510
ATOM      4  C   UNL d   1       0.457 -18.383  -7.147 -0.23 -0.05    +0.064    50.510
ATOM      5  C   UNL d   1       2.698 -15.633 -11.214 -0.21 -0.02    +0.066    50.510
ATOM      6  C   UNL d   1       3.377 -14.991 -12.253 -0.17 +0.01    -0.021    50.510
ATOM      7  C   UNL d   1       4.590 -14.579 -11.752 -0.19 +0.01    -0.025    50.510
ATOM      8  C   UNL d   1       4.598 -14.938 -10.407 -0.21 -0.02    +0.066    50.510
ATOM      9  C   UNL d   1       5.676 -13.904 -12.560 -0.14 -0.01    +0.051    50.510
ATOM     10  C   UNL d   1       5.663 -14.971  -8.142 -0.21 -0.03    +0.066    50.510
ATOM     11  C   UNL d   1       6.658 -14.497  -7.280 -0.17 +0.01    -0.021    50.510
ATOM     12  C   UNL d   1       6.344 -14.967  -6.019 -0.20 -0.00    +0.000    50.510
ATOM     13  C   UNL d   1       5.154 -15.729  -6.188 -0.20 -0.02    +0.070    50.510
ATOM     14  C   UNL d   1       7.845 -13.610  -7.640 -0.17 -0.05    +0.052    50.510
ATOM     15  C   UNL d   1       3.304 -17.171  -5.356 -0.21 -0.02    +0.066    50.510
ATOM     16  C   UNL d   1       2.751 -17.940  -4.334 -0.20 +0.01    -0.021    50.510
ATOM     17  C   UNL d   1       1.600 -18.527  -4.860 -0.25 -0.00    +0.000    50.510
ATOM     18  C   UNL d   1       1.535 -18.063  -6.181 -0.26 -0.04    +0.070    50.510
ATOM     19  C   UNL d   1       3.393 -18.090  -2.977 -0.22 -0.01    +0.052    50.510
ATOM     20  C   UNL d   1       0.388 -17.990  -8.434 -0.26 -0.03    +0.066    50.510
ATOM     21  C   UNL d   1      -0.663 -18.308  -9.290 -0.32 +0.01    -0.025    50.510
ATOM     22  C   UNL d   1      -0.400 -17.671 -10.482 -0.28 +0.00    -0.021    50.510
ATOM     23  C   UNL d   1       0.814 -16.999 -10.313 -0.27 -0.02    +0.066    50.510
ATOM     24  C   UNL d   1      -1.854 -19.180  -8.988 -0.37 -0.02    +0.051    50.510
ATOM     25  N   UNL d   1       3.460 -15.645 -10.092 -0.13 +0.10    -0.248    50.510
ATOM     26  N   UNL d   1       4.750 -15.730  -7.484 -0.14 +0.10    -0.248    50.510
ATOM     27  N   UNL d   1       2.617 -17.302  -6.488 -0.08 +0.12    -0.248    50.510
ATOM     28  N   UNL d   1       1.312 -17.233  -9.082 -0.08 +0.11    -0.248    50.510
ATOM     29 FE   UNL d   1       3.018 -16.488  -8.286 -0.05 -0.00    +0.000    50.510
ATOM     30  O   UNL d   1       4.189 -17.188  -9.036 -0.13 -0.00    +0.000    50.510
ATOM     31  O   UNL d   1       3.130 -18.057  -8.258 -0.14 -0.00    +0.000    50.510
ATOM     32  C   UNL d   1       2.965 -14.888 -13.699 -0.12 -0.01    +0.052    50.510
ATOM     33  C   UNL d   1       3.517 -16.024 -14.555 -0.02 -0.01    +0.115    50.510
ATOM     34  C   UNL d   1       2.503 -17.117 -14.783 -0.01 -0.00    +0.139    50.510
ATOM     35  O   UNL d   1       2.676 -18.215 -14.278 +0.02 +0.00    -0.650    50.510
ATOM     36  O   UNL d   1       1.418 -16.919 -15.559 +0.04 -0.03    -0.776    50.510
ATOM     37  H   UNL d   1       0.636 -17.479 -15.497 +0.02 +0.02    +0.167    50.510
ATOM     38  C   UNL d   1      -1.241 -17.759 -11.729 -0.13 +0.01    +0.052    50.510
ATOM     39  C   UNL d   1      -0.395 -17.795 -13.000 -0.16 +0.02    +0.115    50.510
ATOM     40  C   UNL d   1      -0.881 -18.828 -13.987 -0.12 +0.04    +0.139    50.510
ATOM     41  O   UNL d   1      -2.035 -19.223 -13.932 -0.05 -0.41    -0.650    50.510
ATOM     42  O   UNL d   1      -0.077 -19.288 -14.965 +0.03 -0.19    -0.776    50.510
ATOM     43  H   UNL d   1       0.807 -18.927 -15.103 +0.02 +0.02    +0.167    50.510
ATOM     44  C   UNL d   1       7.196 -14.651  -4.807 -0.23 -0.00    +0.004    50.510
ATOM     45  C   UNL d   1       6.787 -14.337  -3.578 -0.31 -0.01    +0.012    50.510
ATOM     46  C   UNL d   1       0.623 -19.501  -4.257 -0.18 -0.00    +0.004    50.510
ATOM     47  C   UNL d   1       0.696 -20.122  -3.073 -0.25 -0.00    +0.012    50.510
TER
ENDMDL
MODEL       55
USER    Run = 55
USER    Cluster Rank = 35
USER    Number of conformations in this cluster = 1
USER  
USER    RMSD from reference structure       = 55.229 A
USER  
USER    Estimated Free Energy of Binding    =   -5.07 kcal/mol  [=(1)+(2)+(3)-(4)]
USER    Estimated Inhibition Constant, Ki   =  191.53 uM (micromolar)  [Temperature = 298.15 K]
USER    
USER    (1) Final Intermolecular Energy     =   -8.05 kcal/mol
USER        vdW + Hbond + desolv Energy     =   -4.68 kcal/mol
USER        Electrostatic Energy            =   -3.38 kcal/mol
USER    (2) Final Total Internal Energy     =   -1.50 kcal/mol
USER    (3) Torsional Free Energy           =   +2.98 kcal/mol
USER    (4) Unbound System's Energy  [=(2)] =   -1.50 kcal/mol
USER    
USER    
USER  
USER    DPF = D:/Protein_go_brrr/autodock/final/mut_Y35F/heme_O2/dock.dpf
USER    NEWDPF move	heme_O2_opt.pdbqt
USER    NEWDPF about	8.287000 34.468000 -0.670000
USER    NEWDPF tran0	-6.865313 -18.176321 -16.942958
USER    NEWDPF axisangle0	0.702985 0.521396 -0.483692 87.049510
USER    NEWDPF quaternion0	0.484123 0.359069 -0.333103 0.725077
USER    NEWDPF dihe0	7.95 -68.55 70.11 -103.35 -140.85 135.84 -174.60 -148.70 7.19 -5.41 
USER  
USER                              x       y       z    vdW   Elec        q     RMS 
ATOM      1  C   UNL d   1      -7.245 -19.914 -18.099 -0.07 +0.05    +0.064    55.229
ATOM      2  C   UNL d   1      -9.390 -18.066 -14.286 -0.10 +0.02    +0.064    55.229
ATOM      3  C   UNL d   1      -6.231 -14.447 -14.147 -0.21 +0.01    +0.064    55.229
ATOM      4  C   UNL d   1      -4.304 -16.077 -18.354 -0.03 +0.01    +0.064    55.229
ATOM      5  C   UNL d   1      -8.087 -19.705 -17.074 -0.08 +0.04    +0.066    55.229
ATOM      6  C   UNL d   1      -9.149 -20.555 -16.748 -0.06 -0.01    -0.021    55.229
ATOM      7  C   UNL d   1      -9.797 -19.998 -15.671 -0.05 -0.01    -0.025    55.229
ATOM      8  C   UNL d   1      -9.085 -18.849 -15.338 -0.09 +0.03    +0.066    55.229
ATOM      9  C   UNL d   1     -11.054 -20.551 -15.036 -0.02 +0.01    +0.051    55.229
ATOM     10  C   UNL d   1      -8.667 -16.862 -13.874 -0.16 +0.01    +0.066    55.229
ATOM     11  C   UNL d   1      -8.927 -16.179 -12.681 -0.25 -0.00    -0.021    55.229
ATOM     12  C   UNL d   1      -8.014 -15.142 -12.614 -0.33 +0.00    +0.000    55.229
ATOM     13  C   UNL d   1      -7.240 -15.247 -13.803 -0.20 +0.01    +0.070    55.229
ATOM     14  C   UNL d   1      -9.983 -16.517 -11.635 -0.28 +0.00    +0.052    55.229
ATOM     15  C   UNL d   1      -5.446 -14.498 -15.357 -0.10 +0.01    +0.066    55.229
ATOM     16  C   UNL d   1      -4.513 -13.534 -15.735 -0.06 -0.00    -0.021    55.229
ATOM     17  C   UNL d   1      -3.951 -13.977 -16.933 -0.03 +0.00    +0.000    55.229
ATOM     18  C   UNL d   1      -4.591 -15.195 -17.198 -0.04 +0.01    +0.070    55.229
ATOM     19  C   UNL d   1      -4.282 -12.262 -14.958 -0.08 +0.00    +0.052    55.229
ATOM     20  C   UNL d   1      -4.929 -17.230 -18.661 -0.04 +0.02    +0.066    55.229
ATOM     21  C   UNL d   1      -4.602 -18.027 -19.755 -0.02 -0.01    -0.025    55.229
ATOM     22  C   UNL d   1      -5.412 -19.138 -19.683 -0.04 -0.01    -0.021    55.229
ATOM     23  C   UNL d   1      -6.218 -18.969 -18.553 -0.06 +0.04    +0.066    55.229
ATOM     24  C   UNL d   1      -3.573 -17.741 -20.817 -0.00 +0.01    +0.051    55.229
ATOM     25  N   UNL d   1      -8.071 -18.634 -16.243 -0.09 -0.14    -0.248    55.229
ATOM     26  N   UNL d   1      -7.647 -16.293 -14.566 -0.11 -0.06    -0.248    55.229
ATOM     27  N   UNL d   1      -5.547 -15.459 -16.271 -0.05 -0.06    -0.248    55.229
ATOM     28  N   UNL d   1      -5.952 -17.787 -17.961 -0.05 -0.13    -0.248    55.229
ATOM     29 FE   UNL d   1      -6.792 -17.043 -16.276 -0.02 +0.00    +0.000    55.229
ATOM     30  O   UNL d   1      -8.259 -16.677 -16.646 -0.06 +0.00    +0.000    55.229
ATOM     31  O   UNL d   1      -7.066 -16.014 -17.434 -0.05 +0.00    +0.000    55.229
ATOM     32  C   UNL d   1      -9.623 -21.771 -17.501 -0.02 +0.02    +0.052    55.229
ATOM     33  C   UNL d   1      -8.957 -23.058 -17.027 -0.02 +0.05    +0.115    55.229
ATOM     34  C   UNL d   1      -8.030 -22.830 -15.858 -0.06 +0.12    +0.139    55.229
ATOM     35  O   UNL d   1      -8.494 -22.511 -14.774 -0.16 -0.46    -0.650    55.229
ATOM     36  O   UNL d   1      -6.692 -22.943 -15.988 -0.10 -1.54    -0.776    55.229
ATOM     37  H   UNL d   1      -6.271 -23.057 -16.848 -0.00 +0.28    +0.167    55.229
ATOM     38  C   UNL d   1      -5.448 -20.265 -20.683 -0.01 +0.02    +0.052    55.229
ATOM     39  C   UNL d   1      -4.587 -21.451 -20.256 -0.02 +0.05    +0.115    55.229
ATOM     40  C   UNL d   1      -4.498 -21.588 -18.757 +0.04 +0.16    +0.139    55.229
ATOM     41  O   UNL d   1      -3.733 -20.876 -18.127 -0.44 -0.98    -0.650    55.229
ATOM     42  O   UNL d   1      -5.288 -22.451 -18.089 -0.22 -1.15    -0.776    55.229
ATOM     43  H   UNL d   1      -6.245 -22.333 -18.050 -0.00 +0.21    +0.167    55.229
ATOM     44  C   UNL d   1      -7.977 -14.177 -11.448 -0.55 -0.00    +0.004    55.229
ATOM     45  C   UNL d   1      -8.245 -12.872 -11.456 -0.27 -0.00    +0.012    55.229
ATOM     46  C   UNL d   1      -2.938 -13.338 -17.845 -0.01 +0.00    +0.004    55.229
ATOM     47  C   UNL d   1      -3.128 -12.833 -19.071 -0.00 +0.00    +0.012    55.229
TER
ENDMDL
MODEL       70
USER    Run = 70
USER    Cluster Rank = 36
USER    Number of conformations in this cluster = 1
USER  
USER    RMSD from reference structure       = 22.064 A
USER  
USER    Estimated Free Energy of Binding    =   -5.03 kcal/mol  [=(1)+(2)+(3)-(4)]
USER    Estimated Inhibition Constant, Ki   =  205.70 uM (micromolar)  [Temperature = 298.15 K]
USER    
USER    (1) Final Intermolecular Energy     =   -8.01 kcal/mol
USER        vdW + Hbond + desolv Energy     =   -6.93 kcal/mol
USER        Electrostatic Energy            =   -1.08 kcal/mol
USER    (2) Final Total Internal Energy     =   -0.48 kcal/mol
USER    (3) Torsional Free Energy           =   +2.98 kcal/mol
USER    (4) Unbound System's Energy  [=(2)] =   -0.48 kcal/mol
USER    
USER    
USER  
USER    DPF = D:/Protein_go_brrr/autodock/final/mut_Y35F/heme_O2/dock.dpf
USER    NEWDPF move	heme_O2_opt.pdbqt
USER    NEWDPF about	8.287000 34.468000 -0.670000
USER    NEWDPF tran0	2.911542 15.297091 -11.265808
USER    NEWDPF axisangle0	0.355275 -0.934196 -0.032510 147.833453
USER    NEWDPF quaternion0	0.341370 -0.897632 -0.031238 0.277034
USER    NEWDPF dihe0	-156.33 -10.78 -63.25 120.33 84.92 -170.93 -22.51 -17.67 9.53 -13.26 
USER  
USER                              x       y       z    vdW   Elec        q     RMS 
ATOM      1  C   UNL d   1       3.298  16.675  -9.700 -0.15 +0.01    +0.064    22.064
ATOM      2  C   UNL d   1       6.061  14.798 -13.078 -0.18 +0.00    +0.064    22.064
ATOM      3  C   UNL d   1       2.385  12.209 -14.774 -0.15 -0.00    +0.064    22.064
ATOM      4  C   UNL d   1      -0.581  14.493 -11.604 -0.15 -0.00    +0.064    22.064
ATOM      5  C   UNL d   1       4.349  16.377 -10.482 -0.05 +0.01    +0.066    22.064
ATOM      6  C   UNL d   1       5.631  16.907 -10.305 -0.14 -0.00    -0.021    22.064
ATOM      7  C   UNL d   1       6.421  16.398 -11.309 -0.14 -0.00    -0.025    22.064
ATOM      8  C   UNL d   1       5.612  15.533 -12.042 -0.17 +0.01    +0.066    22.064
ATOM      9  C   UNL d   1       7.870  16.767 -11.542 -0.09 +0.00    +0.051    22.064
ATOM     10  C   UNL d   1       5.266  13.858 -13.870 -0.20 +0.00    +0.066    22.064
ATOM     11  C   UNL d   1       5.818  13.000 -14.827 -0.18 -0.00    -0.021    22.064
ATOM     12  C   UNL d   1       4.777  12.232 -15.315 -0.18 -0.00    +0.000    22.064
ATOM     13  C   UNL d   1       3.621  12.684 -14.620 -0.14 -0.00    +0.070    22.064
ATOM     14  C   UNL d   1       7.282  12.898 -15.239 -0.14 -0.00    +0.052    22.064
ATOM     15  C   UNL d   1       1.183  12.662 -14.117 -0.04 -0.00    +0.066    22.064
ATOM     16  C   UNL d   1      -0.104  12.236 -14.441 -0.12 +0.00    -0.021    22.064
ATOM     17  C   UNL d   1      -0.967  12.875 -13.550 -0.12 -0.00    +0.000    22.064
ATOM     18  C   UNL d   1      -0.130  13.652 -12.738 -0.16 -0.00    +0.070    22.064
ATOM     19  C   UNL d   1      -0.398  11.309 -15.594 -0.08 -0.00    +0.052    22.064
ATOM     20  C   UNL d   1       0.189  15.284 -10.833 -0.16 -0.00    +0.066    22.064
ATOM     21  C   UNL d   1      -0.291  16.040  -9.767 -0.09 +0.00    -0.025    22.064
ATOM     22  C   UNL d   1       0.805  16.648  -9.195 -0.11 +0.00    -0.021    22.064
ATOM     23  C   UNL d   1       1.915  16.252  -9.948 -0.17 +0.00    +0.066    22.064
ATOM     24  C   UNL d   1      -1.722  16.180  -9.319 -0.05 -0.01    +0.051    22.064
ATOM     25  N   UNL d   1       4.320  15.572 -11.571 -0.14 -0.02    -0.248    22.064
ATOM     26  N   UNL d   1       3.927  13.677 -13.747 -0.12 -0.00    -0.248    22.064
ATOM     27  N   UNL d   1       1.163  13.569 -13.144 -0.09 +0.01    -0.248    22.064
ATOM     28  N   UNL d   1       1.530  15.459 -10.969 -0.15 +0.00    -0.248    22.064
ATOM     29 FE   UNL d   1       2.717  14.573 -12.349 -0.05 +0.00    +0.000    22.064
ATOM     30  O   UNL d   1       3.250  15.716 -13.263 -0.12 +0.00    +0.000    22.064
ATOM     31  O   UNL d   1       1.697  15.488 -13.122 -0.11 -0.00    +0.000    22.064
ATOM     32  C   UNL d   1       6.068  17.957  -9.317 -0.13 +0.01    +0.052    22.064
ATOM     33  C   UNL d   1       6.607  17.363  -8.020 -0.22 +0.05    +0.115    22.064
ATOM     34  C   UNL d   1       7.557  18.296  -7.311 -0.13 +0.06    +0.139    22.064
ATOM     35  O   UNL d   1       8.628  18.573  -7.827 +0.02 -0.08    -0.650    22.064
ATOM     36  O   UNL d   1       7.262  18.812  -6.100 -0.48 -0.55    -0.776    22.064
ATOM     37  H   UNL d   1       7.656  19.634  -5.785 +0.02 +0.06    +0.167    22.064
ATOM     38  C   UNL d   1       0.772  17.604  -8.032 -0.07 -0.00    +0.052    22.064
ATOM     39  C   UNL d   1       0.865  16.888  -6.686 -0.16 -0.01    +0.115    22.064
ATOM     40  C   UNL d   1       1.284  17.811  -5.569 -0.09 +0.04    +0.139    22.064
ATOM     41  O   UNL d   1       1.949  18.802  -5.820 -0.47 -0.37    -0.650    22.064
ATOM     42  O   UNL d   1       0.892  17.589  -4.300 -0.36 -0.06    -0.776    22.064
ATOM     43  H   UNL d   1       0.245  16.907  -4.083 -0.46 -0.21    +0.167    22.064
ATOM     44  C   UNL d   1       4.988  11.171 -16.374 -0.14 -0.00    +0.004    22.064
ATOM     45  C   UNL d   1       4.873   9.850 -16.244 -0.19 -0.00    +0.012    22.064
ATOM     46  C   UNL d   1      -2.469  12.857 -13.445 -0.06 -0.00    +0.004    22.064
ATOM     47  C   UNL d   1      -3.225  12.351 -12.462 -0.07 -0.00    +0.012    22.064
TER
ENDMDL
MODEL       90
USER    Run = 90
USER    Cluster Rank = 37
USER    Number of conformations in this cluster = 1
USER  
USER    RMSD from reference structure       = 43.893 A
USER  
USER    Estimated Free Energy of Binding    =   -4.94 kcal/mol  [=(1)+(2)+(3)-(4)]
USER    Estimated Inhibition Constant, Ki   =  239.06 uM (micromolar)  [Temperature = 298.15 K]
USER    
USER    (1) Final Intermolecular Energy     =   -7.92 kcal/mol
USER        vdW + Hbond + desolv Energy     =   -6.96 kcal/mol
USER        Electrostatic Energy            =   -0.96 kcal/mol
USER    (2) Final Total Internal Energy     =   -1.52 kcal/mol
USER    (3) Torsional Free Energy           =   +2.98 kcal/mol
USER    (4) Unbound System's Energy  [=(2)] =   -1.52 kcal/mol
USER    
USER    
USER  
USER    DPF = D:/Protein_go_brrr/autodock/final/mut_Y35F/heme_O2/dock.dpf
USER    NEWDPF move	heme_O2_opt.pdbqt
USER    NEWDPF about	8.287000 34.468000 -0.670000
USER    NEWDPF tran0	8.924641 -11.811956 6.649955
USER    NEWDPF axisangle0	0.106142 -0.994157 0.019665 175.566927
USER    NEWDPF quaternion0	0.106063 -0.993413 0.019650 0.038676
USER    NEWDPF dihe0	169.36 7.48 -7.35 36.00 65.08 78.50 45.87 -1.19 -31.07 172.05 
USER  
USER                              x       y       z    vdW   Elec        q     RMS 
ATOM      1  C   UNL d   1      10.556 -10.802   7.554 -0.14 -0.00    +0.064    43.893
ATOM      2  C   UNL d   1      10.282 -13.830   3.905 -0.15 -0.02    +0.064    43.893
ATOM      3  C   UNL d   1       5.530 -14.245   4.487 -0.13 -0.02    +0.064    43.893
ATOM      4  C   UNL d   1       5.730 -10.764   7.938 -0.11 -0.01    +0.064    43.893
ATOM      5  C   UNL d   1      10.869 -11.590   6.513 -0.15 -0.02    +0.066    43.893
ATOM      6  C   UNL d   1      12.169 -11.772   6.031 -0.10 +0.01    -0.021    43.893
ATOM      7  C   UNL d   1      12.085 -12.614   4.947 -0.12 +0.01    -0.025    43.893
ATOM      8  C   UNL d   1      10.743 -12.963   4.827 -0.15 -0.02    +0.066    43.893
ATOM      9  C   UNL d   1      13.252 -13.019   4.074 -0.09 -0.02    +0.051    43.893
ATOM     10  C   UNL d   1       8.890 -14.251   3.744 -0.18 -0.01    +0.066    43.893
ATOM     11  C   UNL d   1       8.491 -15.276   2.879 -0.17 +0.00    -0.021    43.893
ATOM     12  C   UNL d   1       7.126 -15.424   3.046 -0.23 -0.00    +0.000    43.893
ATOM     13  C   UNL d   1       6.760 -14.450   4.016 -0.23 -0.02    +0.070    43.893
ATOM     14  C   UNL d   1       9.379 -16.100   1.953 -0.13 -0.01    +0.052    43.893
ATOM     15  C   UNL d   1       5.112 -13.247   5.442 -0.18 -0.02    +0.066    43.893
ATOM     16  C   UNL d   1       3.784 -12.975   5.771 -0.31 +0.01    -0.021    43.893
ATOM     17  C   UNL d   1       3.817 -11.985   6.753 -0.23 -0.00    +0.000    43.893
ATOM     18  C   UNL d   1       5.180 -11.725   6.953 -0.13 -0.01    +0.070    43.893
ATOM     19  C   UNL d   1       2.615 -13.637   5.087 -0.40 -0.02    +0.052    43.893
ATOM     20  C   UNL d   1       7.029 -10.459   8.125 -0.09 -0.01    +0.066    43.893
ATOM     21  C   UNL d   1       7.489  -9.558   9.081 -0.07 +0.00    -0.025    43.893
ATOM     22  C   UNL d   1       8.863  -9.576   9.005 -0.08 +0.00    -0.021    43.893
ATOM     23  C   UNL d   1       9.192 -10.479   7.989 -0.11 -0.01    +0.066    43.893
ATOM     24  C   UNL d   1       6.659  -8.719  10.018 -0.07 -0.01    +0.051    43.893
ATOM     25  N   UNL d   1       9.985 -12.280   5.751 -0.10 +0.08    -0.248    43.893
ATOM     26  N   UNL d   1       7.838 -13.738   4.432 -0.15 +0.04    -0.248    43.893
ATOM     27  N   UNL d   1       5.948 -12.446   6.096 -0.12 +0.04    -0.248    43.893
ATOM     28  N   UNL d   1       8.073 -10.979   7.426 -0.07 +0.04    -0.248    43.893
ATOM     29 FE   UNL d   1       7.953 -12.348   5.940 -0.04 -0.00    +0.000    43.893
ATOM     30  O   UNL d   1       8.440 -11.631   4.648 -0.57 -0.00    +0.000    43.893
ATOM     31  O   UNL d   1       7.213 -11.051   5.447 -0.48 -0.00    +0.000    43.893
ATOM     32  C   UNL d   1      13.426 -11.074   6.482 -0.05 +0.01    +0.052    43.893
ATOM     33  C   UNL d   1      13.644 -11.162   7.990 -0.07 +0.04    +0.115    43.893
ATOM     34  C   UNL d   1      14.083  -9.847   8.585 +0.11 +0.11    +0.139    43.893
ATOM     35  O   UNL d   1      15.268  -9.553   8.592 -0.01 -0.31    -0.650    43.893
ATOM     36  O   UNL d   1      13.196  -8.994   9.138 -0.36 -0.75    -0.776    43.893
ATOM     37  H   UNL d   1      13.476  -8.225   9.648 +0.01 +0.11    +0.167    43.893
ATOM     38  C   UNL d   1       9.800  -8.724   9.822 -0.08 +0.01    +0.052    43.893
ATOM     39  C   UNL d   1      10.040  -7.354   9.191 -0.07 +0.03    +0.115    43.893
ATOM     40  C   UNL d   1      10.932  -6.479  10.035 -0.08 +0.04    +0.139    43.893
ATOM     41  O   UNL d   1      10.652  -5.302  10.193 +0.03 -0.10    -0.650    43.893
ATOM     42  O   UNL d   1      12.011  -6.986  10.663 +0.01 -0.21    -0.776    43.893
ATOM     43  H   UNL d   1      12.329  -7.878  10.480 +0.01 +0.06    +0.167    43.893
ATOM     44  C   UNL d   1       6.329 -16.455   2.275 -0.27 -0.00    +0.004    43.893
ATOM     45  C   UNL d   1       5.073 -16.845   2.489 -0.31 -0.00    +0.012    43.893
ATOM     46  C   UNL d   1       2.704 -11.248   7.451 -0.31 -0.00    +0.004    43.893
ATOM     47  C   UNL d   1       1.464 -11.679   7.716 -0.29 -0.00    +0.012    43.893
TER
ENDMDL
MODEL       39
USER    Run = 39
USER    Cluster Rank = 38
USER    Number of conformations in this cluster = 1
USER  
USER    RMSD from reference structure       = 24.725 A
USER  
USER    Estimated Free Energy of Binding    =   -4.91 kcal/mol  [=(1)+(2)+(3)-(4)]
USER    Estimated Inhibition Constant, Ki   =  252.80 uM (micromolar)  [Temperature = 298.15 K]
USER    
USER    (1) Final Intermolecular Energy     =   -7.89 kcal/mol
USER        vdW + Hbond + desolv Energy     =   -8.25 kcal/mol
USER        Electrostatic Energy            =   +0.36 kcal/mol
USER    (2) Final Total Internal Energy     =   -0.74 kcal/mol
USER    (3) Torsional Free Energy           =   +2.98 kcal/mol
USER    (4) Unbound System's Energy  [=(2)] =   -0.74 kcal/mol
USER    
USER    
USER  
USER    DPF = D:/Protein_go_brrr/autodock/final/mut_Y35F/heme_O2/dock.dpf
USER    NEWDPF move	heme_O2_opt.pdbqt
USER    NEWDPF about	8.287000 34.468000 -0.670000
USER    NEWDPF tran0	11.705081 12.266174 -11.955316
USER    NEWDPF axisangle0	-0.463315 -0.868799 -0.174724 -143.547472
USER    NEWDPF quaternion0	-0.440070 -0.825210 -0.165958 -0.312770
USER    NEWDPF dihe0	-135.18 72.55 32.20 -119.86 -70.97 -52.55 131.17 120.89 21.86 164.33 
USER  
USER                              x       y       z    vdW   Elec        q     RMS 
ATOM      1  C   UNL d   1      13.281  10.998 -12.595 -0.23 -0.02    +0.064    24.725
ATOM      2  C   UNL d   1       9.155  12.245 -14.591 -0.04 -0.00    +0.064    24.725
ATOM      3  C   UNL d   1       8.023  14.946 -10.781 -0.20 +0.00    +0.064    24.725
ATOM      4  C   UNL d   1      12.475  14.052  -8.926 -0.19 -0.01    +0.064    24.725
ATOM      5  C   UNL d   1      12.252  11.119 -13.450 -0.17 -0.01    +0.066    24.725
ATOM      6  C   UNL d   1      12.177  10.463 -14.682 -0.13 +0.00    -0.021    24.725
ATOM      7  C   UNL d   1      11.003  10.857 -15.280 -0.10 +0.00    -0.025    24.725
ATOM      8  C   UNL d   1      10.370  11.705 -14.375 -0.04 -0.00    +0.066    24.725
ATOM      9  C   UNL d   1      10.556  10.445 -16.665 -0.06 -0.00    +0.051    24.725
ATOM     10  C   UNL d   1       8.431  13.123 -13.670 -0.10 +0.00    +0.066    24.725
ATOM     11  C   UNL d   1       7.105  13.523 -13.871 -0.22 -0.00    -0.021    24.725
ATOM     12  C   UNL d   1       6.755  14.288 -12.774 -0.28 +0.00    +0.000    24.725
ATOM     13  C   UNL d   1       7.916  14.322 -11.953 -0.24 +0.00    +0.070    24.725
ATOM     14  C   UNL d   1       6.202  13.168 -15.046 -0.16 -0.00    +0.052    24.725
ATOM     15  C   UNL d   1       9.190  15.034  -9.938 -0.23 +0.00    +0.066    24.725
ATOM     16  C   UNL d   1       9.288  15.839  -8.803 -0.26 -0.00    -0.021    24.725
ATOM     17  C   UNL d   1      10.549  15.601  -8.258 -0.25 -0.00    +0.000    24.725
ATOM     18  C   UNL d   1      11.134  14.655  -9.111 -0.22 -0.01    +0.070    24.725
ATOM     19  C   UNL d   1       8.201  16.794  -8.376 -0.26 +0.01    +0.052    24.725
ATOM     20  C   UNL d   1      13.083  13.175  -9.748 -0.17 -0.02    +0.066    24.725
ATOM     21  C   UNL d   1      14.342  12.628  -9.512 -0.16 +0.01    -0.025    24.725
ATOM     22  C   UNL d   1      14.576  11.735 -10.533 -0.20 +0.01    -0.021    24.725
ATOM     23  C   UNL d   1      13.455  11.784 -11.368 -0.11 -0.02    +0.066    24.725
ATOM     24  C   UNL d   1      15.274  12.944  -8.372 -0.17 -0.01    +0.051    24.725
ATOM     25  N   UNL d   1      11.170  11.917 -13.276 -0.09 +0.02    -0.248    24.725
ATOM     26  N   UNL d   1       8.933  13.614 -12.508 -0.17 +0.00    -0.248    24.725
ATOM     27  N   UNL d   1      10.325  14.379 -10.165 -0.15 +0.02    -0.248    24.725
ATOM     28  N   UNL d   1      12.570  12.694 -10.911 -0.12 +0.06    -0.248    24.725
ATOM     29 FE   UNL d   1      10.764  13.153 -11.702 -0.04 -0.00    +0.000    24.725
ATOM     30  O   UNL d   1      11.051  13.905 -13.033 -0.09 -0.00    +0.000    24.725
ATOM     31  O   UNL d   1      11.618  14.473 -11.677 -0.09 -0.00    +0.000    24.725
ATOM     32  C   UNL d   1      13.229   9.606 -15.337 -0.16 -0.01    +0.052    24.725
ATOM     33  C   UNL d   1      12.900   8.118 -15.283 -0.19 -0.03    +0.115    24.725
ATOM     34  C   UNL d   1      12.554   7.656 -13.889 -0.39 -0.03    +0.139    24.725
ATOM     35  O   UNL d   1      11.623   6.884 -13.723 -0.07 +0.12    -0.650    24.725
ATOM     36  O   UNL d   1      13.236   8.099 -12.812 -0.50 +0.29    -0.776    24.725
ATOM     37  H   UNL d   1      13.532   7.503 -12.115 -0.46 -0.10    +0.167    24.725
ATOM     38  C   UNL d   1      15.836  10.931 -10.725 -0.30 -0.02    +0.052    24.725
ATOM     39  C   UNL d   1      16.831  11.622 -11.654 -0.12 -0.02    +0.115    24.725
ATOM     40  C   UNL d   1      16.267  11.854 -13.034 -0.11 -0.02    +0.139    24.725
ATOM     41  O   UNL d   1      15.705  12.906 -13.290 +0.02 +0.09    -0.650    24.725
ATOM     42  O   UNL d   1      16.416  10.937 -14.009 +0.04 +0.11    -0.776    24.725
ATOM     43  H   UNL d   1      15.896  10.125 -14.022 -0.29 -0.05    +0.167    24.725
ATOM     44  C   UNL d   1       5.376  14.898 -12.627 -0.26 +0.00    +0.004    24.725
ATOM     45  C   UNL d   1       5.037  16.004 -11.966 -0.18 +0.00    +0.012    24.725
ATOM     46  C   UNL d   1      11.245  16.216  -7.073 -0.17 -0.00    +0.004    24.725
ATOM     47  C   UNL d   1      12.456  16.786  -7.027 -0.17 -0.00    +0.012    24.725
TER
ENDMDL
MODEL       25
USER    Run = 25
USER    Cluster Rank = 39
USER    Number of conformations in this cluster = 2
USER  
USER    RMSD from reference structure       = 20.934 A
USER  
USER    Estimated Free Energy of Binding    =   -4.90 kcal/mol  [=(1)+(2)+(3)-(4)]
USER    Estimated Inhibition Constant, Ki   =  257.97 uM (micromolar)  [Temperature = 298.15 K]
USER    
USER    (1) Final Intermolecular Energy     =   -7.88 kcal/mol
USER        vdW + Hbond + desolv Energy     =   -7.03 kcal/mol
USER        Electrostatic Energy            =   -0.85 kcal/mol
USER    (2) Final Total Internal Energy     =   -2.19 kcal/mol
USER    (3) Torsional Free Energy           =   +2.98 kcal/mol
USER    (4) Unbound System's Energy  [=(2)] =   -2.19 kcal/mol
USER    
USER    
USER  
USER    DPF = D:/Protein_go_brrr/autodock/final/mut_Y35F/heme_O2/dock.dpf
USER    NEWDPF move	heme_O2_opt.pdbqt
USER    NEWDPF about	8.287000 34.468000 -0.670000
USER    NEWDPF tran0	10.489468 15.571139 -9.818585
USER    NEWDPF axisangle0	-0.928836 0.348155 0.126698 106.166117
USER    NEWDPF quaternion0	-0.742611 0.278352 0.101296 0.600657
USER    NEWDPF dihe0	61.20 171.36 53.38 -83.35 -159.57 -53.43 -20.86 86.12 -176.56 161.46 
USER  
USER                              x       y       z    vdW   Elec        q     RMS 
ATOM      1  C   UNL d   1       9.160  17.166  -9.385 -0.09 +0.00    +0.064    20.934
ATOM      2  C   UNL d   1       9.127  13.776 -12.712 -0.19 -0.00    +0.064    20.934
ATOM      3  C   UNL d   1      13.281  12.000 -11.074 -0.02 -0.02    +0.064    20.934
ATOM      4  C   UNL d   1      13.083  15.189  -7.351 -0.18 -0.02    +0.064    20.934
ATOM      5  C   UNL d   1       8.811  16.388 -10.423 -0.11 +0.00    +0.066    20.934
ATOM      6  C   UNL d   1       7.665  16.585 -11.198 -0.11 -0.00    -0.021    20.934
ATOM      7  C   UNL d   1       7.632  15.578 -12.135 -0.15 -0.00    -0.025    20.934
ATOM      8  C   UNL d   1       8.784  14.822 -11.936 -0.18 -0.00    +0.066    20.934
ATOM      9  C   UNL d   1       6.518  15.364 -13.137 -0.14 +0.00    +0.051    20.934
ATOM     10  C   UNL d   1      10.333  12.960 -12.566 -0.15 -0.00    +0.066    20.934
ATOM     11  C   UNL d   1      10.723  11.990 -13.497 -0.05 +0.00    -0.021    20.934
ATOM     12  C   UNL d   1      11.928  11.479 -13.052 -0.20 -0.00    +0.000    20.934
ATOM     13  C   UNL d   1      12.205  12.173 -11.841 -0.19 -0.02    +0.070    20.934
ATOM     14  C   UNL d   1       9.991  11.588 -14.772 -0.11 -0.00    +0.052    20.934
ATOM     15  C   UNL d   1      13.581  12.656  -9.824 -0.11 -0.02    +0.066    20.934
ATOM     16  C   UNL d   1      14.641  12.313  -8.986 -0.22 +0.01    -0.021    20.934
ATOM     17  C   UNL d   1      14.604  13.208  -7.917 -0.20 -0.00    +0.000    20.934
ATOM     18  C   UNL d   1      13.511  14.043  -8.188 -0.16 -0.02    +0.070    20.934
ATOM     19  C   UNL d   1      15.552  11.140  -9.249 -0.34 -0.02    +0.052    20.934
ATOM     20  C   UNL d   1      12.014  15.982  -7.559 -0.15 -0.01    +0.066    20.934
ATOM     21  C   UNL d   1      11.671  17.058  -6.745 -0.15 +0.01    -0.025    20.934
ATOM     22  C   UNL d   1      10.571  17.650  -7.325 -0.12 +0.00    -0.021    20.934
ATOM     23  C   UNL d   1      10.272  16.899  -8.465 -0.11 -0.00    +0.066    20.934
ATOM     24  C   UNL d   1      12.356  17.497  -5.477 -0.12 -0.04    +0.051    20.934
ATOM     25  N   UNL d   1       9.476  15.282 -10.839 -0.10 +0.00    -0.248    20.934
ATOM     26  N   UNL d   1      11.227  13.068 -11.551 -0.14 +0.04    -0.248    20.934
ATOM     27  N   UNL d   1      12.857  13.646  -9.309 -0.10 +0.05    -0.248    20.934
ATOM     28  N   UNL d   1      11.124  15.859  -8.579 -0.08 +0.02    -0.248    20.934
ATOM     29 FE   UNL d   1      11.177  14.473 -10.053 -0.04 -0.00    +0.000    20.934
ATOM     30  O   UNL d   1       9.913  13.586  -9.861 -0.43 -0.00    +0.000    20.934
ATOM     31  O   UNL d   1      10.964  13.709  -8.694 -0.45 -0.00    +0.000    20.934
ATOM     32  C   UNL d   1       6.569  17.597 -10.985 -0.08 +0.00    +0.052    20.934
ATOM     33  C   UNL d   1       5.412  17.050 -10.155 -0.13 +0.02    +0.115    20.934
ATOM     34  C   UNL d   1       4.619  18.144  -9.483 -0.09 +0.03    +0.139    20.934
ATOM     35  O   UNL d   1       4.235  19.100 -10.137 +0.03 -0.06    -0.650    20.934
ATOM     36  O   UNL d   1       4.347  18.104  -8.162 +0.03 -0.33    -0.776    20.934
ATOM     37  H   UNL d   1       5.044  18.107  -7.496 +0.03 +0.12    +0.167    20.934
ATOM     38  C   UNL d   1       9.817  18.831  -6.772 -0.10 -0.00    +0.052    20.934
ATOM     39  C   UNL d   1       8.585  18.413  -5.973 -0.03 +0.03    +0.115    20.934
ATOM     40  C   UNL d   1       7.327  18.423  -6.805 -0.01 +0.08    +0.139    20.934
ATOM     41  O   UNL d   1       6.979  17.410  -7.391 -0.25 -0.37    -0.650    20.934
ATOM     42  O   UNL d   1       6.547  19.519  -6.875 -0.22 -0.39    -0.776    20.934
ATOM     43  H   UNL d   1       5.788  19.562  -7.469 +0.02 +0.07    +0.167    20.934
ATOM     44  C   UNL d   1      12.674  10.401 -13.810 -0.24 -0.00    +0.004    20.934
ATOM     45  C   UNL d   1      13.185   9.268 -13.331 -0.38 -0.00    +0.012    20.934
ATOM     46  C   UNL d   1      15.451  13.301  -6.676 -0.26 -0.00    +0.004    20.934
ATOM     47  C   UNL d   1      15.245  12.720  -5.487 -0.45 -0.00    +0.012    20.934
TER
ENDMDL
MODEL       88
USER    Run = 88
USER    Cluster Rank = 40
USER    Number of conformations in this cluster = 1
USER  
USER    RMSD from reference structure       = 40.379 A
USER  
USER    Estimated Free Energy of Binding    =   -4.84 kcal/mol  [=(1)+(2)+(3)-(4)]
USER    Estimated Inhibition Constant, Ki   =  285.18 uM (micromolar)  [Temperature = 298.15 K]
USER    
USER    (1) Final Intermolecular Energy     =   -7.82 kcal/mol
USER        vdW + Hbond + desolv Energy     =   -5.32 kcal/mol
USER        Electrostatic Energy            =   -2.50 kcal/mol
USER    (2) Final Total Internal Energy     =   -1.76 kcal/mol
USER    (3) Torsional Free Energy           =   +2.98 kcal/mol
USER    (4) Unbound System's Energy  [=(2)] =   -1.76 kcal/mol
USER    
USER    
USER  
USER    DPF = D:/Protein_go_brrr/autodock/final/mut_Y35F/heme_O2/dock.dpf
USER    NEWDPF move	heme_O2_opt.pdbqt
USER    NEWDPF about	8.287000 34.468000 -0.670000
USER    NEWDPF tran0	18.756442 -6.719771 -8.011929
USER    NEWDPF axisangle0	0.173956 -0.664840 -0.726448 132.213351
USER    NEWDPF quaternion0	0.159049 -0.607864 -0.664192 0.405035
USER    NEWDPF dihe0	63.61 48.29 124.82 -106.55 54.63 -44.15 179.58 148.87 -167.60 -169.26 
USER  
USER                              x       y       z    vdW   Elec        q     RMS 
ATOM      1  C   UNL d   1      19.253  -8.073  -6.456 -0.05 +0.04    +0.064    40.379
ATOM      2  C   UNL d   1      21.560  -4.380  -8.353 -0.06 +0.01    +0.064    40.379
ATOM      3  C   UNL d   1      17.976  -3.622 -11.464 -0.28 -0.02    +0.064    40.379
ATOM      4  C   UNL d   1      15.383  -7.120  -9.204 -0.08 +0.01    +0.064    40.379
ATOM      5  C   UNL d   1      20.172  -7.129  -6.717 -0.05 +0.03    +0.066    40.379
ATOM      6  C   UNL d   1      21.391  -7.016  -6.042 -0.02 -0.01    -0.021    40.379
ATOM      7  C   UNL d   1      22.041  -5.920  -6.561 -0.03 -0.00    -0.025    40.379
ATOM      8  C   UNL d   1      21.222  -5.424  -7.572 -0.05 +0.01    +0.066    40.379
ATOM      9  C   UNL d   1      23.367  -5.386  -6.067 -0.01 +0.00    +0.051    40.379
ATOM     10  C   UNL d   1      20.753  -3.829  -9.443 -0.09 +0.00    +0.066    40.379
ATOM     11  C   UNL d   1      21.221  -2.851 -10.328 -0.09 +0.00    -0.021    40.379
ATOM     12  C   UNL d   1      20.209  -2.632 -11.244 -0.19 -0.00    +0.000    40.379
ATOM     13  C   UNL d   1      19.152  -3.499 -10.849 -0.19 -0.01    +0.070    40.379
ATOM     14  C   UNL d   1      22.587  -2.174 -10.317 -0.04 -0.01    +0.052    40.379
ATOM     15  C   UNL d   1      16.868  -4.461 -11.076 -0.23 -0.01    +0.066    40.379
ATOM     16  C   UNL d   1      15.604  -4.424 -11.664 -0.25 +0.01    -0.021    40.379
ATOM     17  C   UNL d   1      14.847  -5.412 -11.035 -0.16 -0.00    +0.000    40.379
ATOM     18  C   UNL d   1      15.719  -5.988 -10.100 -0.13 +0.01    +0.070    40.379
ATOM     19  C   UNL d   1      15.219  -3.422 -12.724 -0.19 -0.04    +0.052    40.379
ATOM     20  C   UNL d   1      16.180  -7.667  -8.266 -0.07 +0.03    +0.066    40.379
ATOM     21  C   UNL d   1      15.815  -8.745  -7.464 -0.05 -0.01    -0.025    40.379
ATOM     22  C   UNL d   1      16.915  -9.048  -6.694 -0.05 -0.01    -0.021    40.379
ATOM     23  C   UNL d   1      17.909  -8.128  -7.043 -0.04 +0.05    +0.066    40.379
ATOM     24  C   UNL d   1      14.483  -9.448  -7.432 -0.04 +0.00    +0.051    40.379
ATOM     25  N   UNL d   1      20.042  -6.129  -7.623 -0.05 -0.11    -0.248    40.379
ATOM     26  N   UNL d   1      19.490  -4.220  -9.751 -0.08 -0.02    -0.248    40.379
ATOM     27  N   UNL d   1      16.916  -5.349 -10.087 -0.11 -0.02    -0.248    40.379
ATOM     28  N   UNL d   1      17.443  -7.263  -7.967 -0.05 -0.19    -0.248    40.379
ATOM     29 FE   UNL d   1      18.457  -5.752  -8.853 -0.03 +0.00    +0.000    40.379
ATOM     30  O   UNL d   1      18.672  -4.669  -7.756 -0.04 +0.00    +0.000    40.379
ATOM     31  O   UNL d   1      17.210  -5.123  -8.130 -0.81 +0.00    +0.000    40.379
ATOM     32  C   UNL d   1      21.870  -7.819  -4.861 -0.01 +0.01    +0.052    40.379
ATOM     33  C   UNL d   1      21.356  -7.280  -3.530 -0.02 +0.03    +0.115    40.379
ATOM     34  C   UNL d   1      20.534  -6.026  -3.696 -0.11 +0.07    +0.139    40.379
ATOM     35  O   UNL d   1      21.061  -4.935  -3.546 -0.00 -0.22    -0.650    40.379
ATOM     36  O   UNL d   1      19.216  -6.081  -3.980 -0.17 -1.06    -0.776    40.379
ATOM     37  H   UNL d   1      18.578  -6.468  -3.370 +0.02 +0.23    +0.167    40.379
ATOM     38  C   UNL d   1      16.979 -10.120  -5.637 -0.03 +0.01    +0.052    40.379
ATOM     39  C   UNL d   1      16.091  -9.807  -4.436 -0.05 +0.03    +0.115    40.379
ATOM     40  C   UNL d   1      15.985  -8.327  -4.167 -0.04 +0.13    +0.139    40.379
ATOM     41  O   UNL d   1      14.998  -7.713  -4.537 -0.11 -0.61    -0.650    40.379
ATOM     42  O   UNL d   1      16.941  -7.675  -3.477 -0.50 -1.06    -0.776    40.379
ATOM     43  H   UNL d   1      17.874  -7.752  -3.712 +0.01 +0.21    +0.167    40.379
ATOM     44  C   UNL d   1      20.350  -1.635 -12.375 -0.15 -0.00    +0.004    40.379
ATOM     45  C   UNL d   1      20.578  -0.325 -12.288 -0.25 -0.00    +0.012    40.379
ATOM     46  C   UNL d   1      13.403  -5.805 -11.199 -0.15 -0.00    +0.004    40.379
ATOM     47  C   UNL d   1      12.407  -5.686 -10.312 -0.18 -0.00    +0.012    40.379
TER
ENDMDL
MODEL       60
USER    Run = 60
USER    Cluster Rank = 41
USER    Number of conformations in this cluster = 1
USER  
USER    RMSD from reference structure       = 39.313 A
USER  
USER    Estimated Free Energy of Binding    =   -4.83 kcal/mol  [=(1)+(2)+(3)-(4)]
USER    Estimated Inhibition Constant, Ki   =  288.57 uM (micromolar)  [Temperature = 298.15 K]
USER    
USER    (1) Final Intermolecular Energy     =   -7.81 kcal/mol
USER        vdW + Hbond + desolv Energy     =   -6.88 kcal/mol
USER        Electrostatic Energy            =   -0.94 kcal/mol
USER    (2) Final Total Internal Energy     =   -0.59 kcal/mol
USER    (3) Torsional Free Energy           =   +2.98 kcal/mol
USER    (4) Unbound System's Energy  [=(2)] =   -0.59 kcal/mol
USER    
USER    
USER  
USER    DPF = D:/Protein_go_brrr/autodock/final/mut_Y35F/heme_O2/dock.dpf
USER    NEWDPF move	heme_O2_opt.pdbqt
USER    NEWDPF about	8.287000 34.468000 -0.670000
USER    NEWDPF tran0	-14.319304 -0.401794 -4.047308
USER    NEWDPF axisangle0	-0.419636 -0.292264 0.859353 107.266957
USER    NEWDPF quaternion0	-0.337908 -0.235343 0.691986 0.592948
USER    NEWDPF dihe0	74.37 -82.03 67.52 -120.50 -117.47 -45.63 61.43 -46.16 180.00 -146.21 
USER  
USER                              x       y       z    vdW   Elec        q     RMS 
ATOM      1  C   UNL d   1     -13.451   1.304  -3.134 -0.15 +0.00    +0.064    39.313
ATOM      2  C   UNL d   1     -16.902  -1.658  -1.767 +0.03 +0.03    +0.064    39.313
ATOM      3  C   UNL d   1     -16.493  -4.165  -5.846 -0.10 +0.01    +0.064    39.313
ATOM      4  C   UNL d   1     -12.616  -1.412  -7.054 -0.14 +0.01    +0.064    39.313
ATOM      5  C   UNL d   1     -14.421   0.702  -2.429 -0.15 +0.01    +0.066    39.313
ATOM      6  C   UNL d   1     -14.869   1.141  -1.179 -0.14 -0.00    -0.021    39.313
ATOM      7  C   UNL d   1     -15.838   0.259  -0.763 -0.14 -0.00    -0.025    39.313
ATOM      8  C   UNL d   1     -15.990  -0.667  -1.791 -0.12 +0.02    +0.066    39.313
ATOM      9  C   UNL d   1     -16.541   0.314   0.576 -0.16 +0.01    +0.051    39.313
ATOM     10  C   UNL d   1     -17.124  -2.646  -2.824 -0.03 +0.02    +0.066    39.313
ATOM     11  C   UNL d   1     -18.191  -3.550  -2.821 -0.06 -0.01    -0.021    39.313
ATOM     12  C   UNL d   1     -18.101  -4.270  -3.998 -0.09 +0.00    +0.000    39.313
ATOM     13  C   UNL d   1     -16.951  -3.761  -4.662 -0.10 +0.01    +0.070    39.313
ATOM     14  C   UNL d   1     -19.267  -3.703  -1.752 -0.07 +0.03    +0.052    39.313
ATOM     15  C   UNL d   1     -15.313  -3.700  -6.535 -0.11 +0.01    +0.066    39.313
ATOM     16  C   UNL d   1     -14.795  -4.277  -7.694 -0.12 -0.00    -0.021    39.313
ATOM     17  C   UNL d   1     -13.689  -3.510  -8.057 -0.15 +0.00    +0.000    39.313
ATOM     18  C   UNL d   1     -13.615  -2.507  -7.080 -0.14 +0.01    +0.070    39.313
ATOM     19  C   UNL d   1     -15.363  -5.529  -8.314 -0.15 +0.00    +0.052    39.313
ATOM     20  C   UNL d   1     -12.490  -0.460  -6.109 -0.13 +0.01    +0.066    39.313
ATOM     21  C   UNL d   1     -11.540   0.556  -6.147 -0.17 -0.00    -0.025    39.313
ATOM     22  C   UNL d   1     -11.780   1.356  -5.053 -0.18 -0.00    -0.021    39.313
ATOM     23  C   UNL d   1     -12.861   0.785  -4.374 -0.17 +0.00    +0.066    39.313
ATOM     24  C   UNL d   1     -10.455   0.753  -7.175 -0.08 -0.00    +0.051    39.313
ATOM     25  N   UNL d   1     -15.072  -0.432  -2.788 -0.10 -0.03    -0.248    39.313
ATOM     26  N   UNL d   1     -16.360  -2.776  -3.939 -0.09 -0.05    -0.248    39.313
ATOM     27  N   UNL d   1     -14.563  -2.682  -6.124 -0.09 -0.02    -0.248    39.313
ATOM     28  N   UNL d   1     -13.261  -0.344  -4.995 -0.11 -0.02    -0.248    39.313
ATOM     29 FE   UNL d   1     -14.798  -1.553  -4.473 -0.04 +0.00    +0.000    39.313
ATOM     30  O   UNL d   1     -14.361  -2.271  -3.163 -0.40 +0.00    +0.000    39.313
ATOM     31  O   UNL d   1     -13.489  -2.424  -4.466 -0.42 +0.00    +0.000    39.313
ATOM     32  C   UNL d   1     -14.314   2.266  -0.343 -0.14 +0.01    +0.052    39.313
ATOM     33  C   UNL d   1     -13.324   1.785   0.714 -0.28 +0.02    +0.115    39.313
ATOM     34  C   UNL d   1     -13.760   2.141   2.114 -0.24 +0.03    +0.139    39.313
ATOM     35  O   UNL d   1     -14.433   1.350   2.755 +0.03 -0.15    -0.650    39.313
ATOM     36  O   UNL d   1     -13.447   3.330   2.667 +0.06 -0.21    -0.776    39.313
ATOM     37  H   UNL d   1     -13.890   4.147   2.409 +0.05 +0.04    +0.167    39.313
ATOM     38  C   UNL d   1     -10.971   2.562  -4.652 -0.19 +0.00    +0.052    39.313
ATOM     39  C   UNL d   1      -9.468   2.314  -4.750 -0.31 -0.01    +0.115    39.313
ATOM     40  C   UNL d   1      -8.744   3.430  -5.460 -0.26 +0.04    +0.139    39.313
ATOM     41  O   UNL d   1      -8.170   4.290  -4.811 -0.39 -0.40    -0.650    39.313
ATOM     42  O   UNL d   1      -8.675   3.470  -6.805 -0.41 -0.37    -0.776    39.313
ATOM     43  H   UNL d   1      -8.047   2.926  -7.294 -0.15 +0.05    +0.167    39.313
ATOM     44  C   UNL d   1     -19.099  -5.351  -4.358 -0.05 +0.00    +0.004    39.313
ATOM     45  C   UNL d   1     -18.871  -6.652  -4.528 -0.07 +0.00    +0.012    39.313
ATOM     46  C   UNL d   1     -12.696  -3.674  -9.177 -0.18 +0.00    +0.004    39.313
ATOM     47  C   UNL d   1     -11.360  -3.706  -9.101 -0.27 +0.00    +0.012    39.313
TER
ENDMDL
MODEL       34
USER    Run = 34
USER    Cluster Rank = 42
USER    Number of conformations in this cluster = 1
USER  
USER    RMSD from reference structure       = 45.320 A
USER  
USER    Estimated Free Energy of Binding    =   -4.75 kcal/mol  [=(1)+(2)+(3)-(4)]
USER    Estimated Inhibition Constant, Ki   =  329.73 uM (micromolar)  [Temperature = 298.15 K]
USER    
USER    (1) Final Intermolecular Energy     =   -7.73 kcal/mol
USER        vdW + Hbond + desolv Energy     =   -6.49 kcal/mol
USER        Electrostatic Energy            =   -1.24 kcal/mol
USER    (2) Final Total Internal Energy     =   -2.08 kcal/mol
USER    (3) Torsional Free Energy           =   +2.98 kcal/mol
USER    (4) Unbound System's Energy  [=(2)] =   -2.08 kcal/mol
USER    
USER    
USER  
USER    DPF = D:/Protein_go_brrr/autodock/final/mut_Y35F/heme_O2/dock.dpf
USER    NEWDPF move	heme_O2_opt.pdbqt
USER    NEWDPF about	8.287000 34.468000 -0.670000
USER    NEWDPF tran0	-0.258668 -8.887259 -15.089647
USER    NEWDPF axisangle0	-0.137076 0.158978 0.977720 95.443463
USER    NEWDPF quaternion0	-0.101420 0.117626 0.723402 0.672732
USER    NEWDPF dihe0	44.65 102.28 -45.40 -104.50 33.54 -27.75 -157.72 107.18 -175.14 -177.61 
USER  
USER                              x       y       z    vdW   Elec        q     RMS 
ATOM      1  C   UNL d   1       0.696  -7.090 -15.688 -0.05 +0.01    +0.064    45.320
ATOM      2  C   UNL d   1      -3.111  -7.953 -12.983 -0.12 -0.00    +0.064    45.320
ATOM      3  C   UNL d   1      -2.636 -12.687 -13.663 -0.21 -0.00    +0.064    45.320
ATOM      4  C   UNL d   1       1.562 -11.839 -16.055 -0.08 +0.00    +0.064    45.320
ATOM      5  C   UNL d   1      -0.377  -6.939 -14.895 -0.07 +0.01    +0.066    45.320
ATOM      6  C   UNL d   1      -0.873  -5.701 -14.477 -0.08 -0.00    -0.021    45.320
ATOM      7  C   UNL d   1      -1.950  -5.951 -13.658 -0.15 -0.00    -0.025    45.320
ATOM      8  C   UNL d   1      -2.111  -7.334 -13.638 -0.15 +0.00    +0.066    45.320
ATOM      9  C   UNL d   1      -2.743  -4.892 -12.924 -0.15 +0.00    +0.051    45.320
ATOM     10  C   UNL d   1      -3.345  -9.398 -12.943 -0.13 -0.00    +0.066    45.320
ATOM     11  C   UNL d   1      -4.490  -9.977 -12.385 -0.12 +0.00    -0.021    45.320
ATOM     12  C   UNL d   1      -4.380 -11.340 -12.587 -0.30 -0.00    +0.000    45.320
ATOM     13  C   UNL d   1      -3.141 -11.521 -13.262 -0.22 -0.01    +0.070    45.320
ATOM     14  C   UNL d   1      -5.653  -9.258 -11.711 -0.20 -0.01    +0.052    45.320
ATOM     15  C   UNL d   1      -1.370 -12.915 -14.316 -0.15 -0.00    +0.066    45.320
ATOM     16  C   UNL d   1      -0.823 -14.174 -14.563 -0.12 -0.00    -0.021    45.320
ATOM     17  C   UNL d   1       0.375 -13.957 -15.244 -0.07 -0.00    +0.000    45.320
ATOM     18  C   UNL d   1       0.469 -12.564 -15.365 -0.08 -0.00    +0.070    45.320
ATOM     19  C   UNL d   1      -1.458 -15.455 -14.083 -0.17 +0.01    +0.052    45.320
ATOM     20  C   UNL d   1       1.706 -10.503 -16.152 -0.08 +0.00    +0.066    45.320
ATOM     21  C   UNL d   1       2.748  -9.877 -16.831 -0.07 -0.00    -0.025    45.320
ATOM     22  C   UNL d   1       2.503  -8.525 -16.760 -0.06 -0.00    -0.021    45.320
ATOM     23  C   UNL d   1       1.325  -8.373 -16.022 -0.07 +0.01    +0.066    45.320
ATOM     24  C   UNL d   1       3.920 -10.537 -17.510 -0.05 -0.00    +0.051    45.320
ATOM     25  N   UNL d   1      -1.103  -7.944 -14.347 -0.06 -0.01    -0.248    45.320
ATOM     26  N   UNL d   1      -2.516 -10.334 -13.470 -0.14 +0.02    -0.248    45.320
ATOM     27  N   UNL d   1      -0.559 -11.945 -14.731 -0.07 +0.00    -0.248    45.320
ATOM     28  N   UNL d   1       0.868  -9.576 -15.616 -0.07 -0.02    -0.248    45.320
ATOM     29 FE   UNL d   1      -0.810  -9.955 -14.551 -0.03 +0.00    +0.000    45.320
ATOM     30  O   UNL d   1      -0.542  -9.424 -13.113 -0.35 +0.00    +0.000    45.320
ATOM     31  O   UNL d   1       0.406 -10.520 -13.730 -0.66 +0.00    +0.000    45.320
ATOM     32  C   UNL d   1      -0.280  -4.338 -14.723 -0.08 +0.01    +0.052    45.320
ATOM     33  C   UNL d   1       0.672  -3.898 -13.615 -0.17 +0.04    +0.115    45.320
ATOM     34  C   UNL d   1       1.181  -5.060 -12.798 -0.20 +0.07    +0.139    45.320
ATOM     35  O   UNL d   1       0.917  -5.122 -11.608 +0.13 -0.24    -0.650    45.320
ATOM     36  O   UNL d   1       1.948  -6.023 -13.348 -0.25 -0.48    -0.776    45.320
ATOM     37  H   UNL d   1       2.686  -5.817 -13.934 +0.07 +0.16    +0.167    45.320
ATOM     38  C   UNL d   1       3.389  -7.441 -17.317 -0.02 +0.00    +0.052    45.320
ATOM     39  C   UNL d   1       4.632  -7.208 -16.461 -0.06 +0.02    +0.115    45.320
ATOM     40  C   UNL d   1       4.318  -6.481 -15.177 -0.12 +0.06    +0.139    45.320
ATOM     41  O   UNL d   1       4.511  -7.033 -14.105 -0.59 -0.52    -0.650    45.320
ATOM     42  O   UNL d   1       3.876  -5.209 -15.188 -0.18 -0.46    -0.776    45.320
ATOM     43  H   UNL d   1       2.951  -4.995 -15.014 +0.03 +0.10    +0.167    45.320
ATOM     44  C   UNL d   1      -5.446 -12.310 -12.122 -0.36 -0.00    +0.004    45.320
ATOM     45  C   UNL d   1      -6.035 -13.278 -12.824 -0.32 -0.00    +0.012    45.320
ATOM     46  C   UNL d   1       1.429 -14.921 -15.721 -0.04 -0.00    +0.004    45.320
ATOM     47  C   UNL d   1       2.680 -15.071 -15.268 -0.04 -0.00    +0.012    45.320
TER
ENDMDL
MODEL       76
USER    Run = 76
USER    Cluster Rank = 43
USER    Number of conformations in this cluster = 2
USER  
USER    RMSD from reference structure       = 18.086 A
USER  
USER    Estimated Free Energy of Binding    =   -4.69 kcal/mol  [=(1)+(2)+(3)-(4)]
USER    Estimated Inhibition Constant, Ki   =  367.18 uM (micromolar)  [Temperature = 298.15 K]
USER    
USER    (1) Final Intermolecular Energy     =   -7.67 kcal/mol
USER        vdW + Hbond + desolv Energy     =   -6.46 kcal/mol
USER        Electrostatic Energy            =   -1.21 kcal/mol
USER    (2) Final Total Internal Energy     =   -1.56 kcal/mol
USER    (3) Torsional Free Energy           =   +2.98 kcal/mol
USER    (4) Unbound System's Energy  [=(2)] =   -1.56 kcal/mol
USER    
USER    
USER  
USER    DPF = D:/Protein_go_brrr/autodock/final/mut_Y35F/heme_O2/dock.dpf
USER    NEWDPF move	heme_O2_opt.pdbqt
USER    NEWDPF about	8.287000 34.468000 -0.670000
USER    NEWDPF tran0	7.964093 18.351180 -8.309343
USER    NEWDPF axisangle0	-0.852203 0.351178 0.387846 110.595319
USER    NEWDPF quaternion0	-0.700614 0.288711 0.318856 0.569313
USER    NEWDPF dihe0	107.83 -22.43 134.67 -6.32 3.08 -76.19 -117.18 -101.86 161.31 122.97 
USER  
USER                              x       y       z    vdW   Elec        q     RMS 
ATOM      1  C   UNL d   1       7.382  20.166  -7.379 -0.05 +0.01    +0.064    18.086
ATOM      2  C   UNL d   1       5.360  17.494 -10.745 -0.08 +0.01    +0.064    18.086
ATOM      3  C   UNL d   1       9.021  14.384 -10.605 -0.23 -0.00    +0.064    18.086
ATOM      4  C   UNL d   1      10.879  16.868  -6.805 -0.07 -0.01    +0.064    18.086
ATOM      5  C   UNL d   1       6.532  19.692  -8.305 -0.05 +0.01    +0.066    18.086
ATOM      6  C   UNL d   1       5.340  20.324  -8.670 -0.03 -0.00    -0.021    18.086
ATOM      7  C   UNL d   1       4.732  19.529  -9.613 -0.03 -0.00    -0.025    18.086
ATOM      8  C   UNL d   1       5.594  18.458  -9.834 -0.06 +0.01    +0.066    18.086
ATOM      9  C   UNL d   1       3.377  19.799 -10.230 -0.01 +0.00    +0.051    18.086
ATOM     10  C   UNL d   1       6.237  16.359 -11.037 -0.12 +0.01    +0.066    18.086
ATOM     11  C   UNL d   1       6.027  15.479 -12.105 -0.19 -0.00    -0.021    18.086
ATOM     12  C   UNL d   1       7.082  14.586 -12.092 -0.27 +0.00    +0.000    18.086
ATOM     13  C   UNL d   1       7.887  14.973 -10.985 -0.15 +0.01    +0.070    18.086
ATOM     14  C   UNL d   1       4.882  15.507 -13.112 -0.15 +0.00    +0.052    18.086
ATOM     15  C   UNL d   1       9.846  14.723  -9.471 -0.27 -0.00    +0.066    18.086
ATOM     16  C   UNL d   1      10.932  13.967  -9.030 -0.34 +0.00    -0.021    18.086
ATOM     17  C   UNL d   1      11.477  14.656  -7.946 -0.30 -0.00    +0.000    18.086
ATOM     18  C   UNL d   1      10.674  15.796  -7.807 -0.19 -0.00    +0.070    18.086
ATOM     19  C   UNL d   1      11.315  12.642  -9.640 -0.27 -0.01    +0.052    18.086
ATOM     20  C   UNL d   1      10.102  17.953  -6.616 -0.09 -0.00    +0.066    18.086
ATOM     21  C   UNL d   1      10.356  18.939  -5.666 -0.11 +0.00    -0.025    18.086
ATOM     22  C   UNL d   1       9.385  19.900  -5.834 -0.07 -0.00    -0.021    18.086
ATOM     23  C   UNL d   1       8.560  19.455  -6.871 -0.08 +0.01    +0.066    18.086
ATOM     24  C   UNL d   1      11.467  18.960  -4.649 -0.13 -0.03    +0.051    18.086
ATOM     25  N   UNL d   1       6.671  18.525  -8.980 -0.05 -0.05    -0.248    18.086
ATOM     26  N   UNL d   1       7.363  16.049 -10.346 -0.10 -0.03    -0.248    18.086
ATOM     27  N   UNL d   1       9.645  15.782  -8.692 -0.15 -0.00    -0.248    18.086
ATOM     28  N   UNL d   1       8.974  18.249  -7.313 -0.08 -0.03    -0.248    18.086
ATOM     29 FE   UNL d   1       8.176  17.155  -8.818 -0.03 +0.00    +0.000    18.086
ATOM     30  O   UNL d   1       6.801  16.641  -8.301 -0.36 +0.00    +0.000    18.086
ATOM     31  O   UNL d   1       8.117  16.278  -7.514 -0.42 +0.00    +0.000    18.086
ATOM     32  C   UNL d   1       4.724  21.556  -8.059 -0.01 +0.01    +0.052    18.086
ATOM     33  C   UNL d   1       3.394  21.273  -7.368 -0.02 +0.02    +0.115    18.086
ATOM     34  C   UNL d   1       3.533  20.284  -6.237 +0.05 +0.07    +0.139    18.086
ATOM     35  O   UNL d   1       2.610  19.527  -5.981 -0.56 -0.43    -0.650    18.086
ATOM     36  O   UNL d   1       4.647  20.234  -5.479 +0.06 -0.55    -0.776    18.086
ATOM     37  H   UNL d   1       4.658  20.543  -4.565 +0.01 +0.09    +0.167    18.086
ATOM     38  C   UNL d   1       9.227  21.143  -4.997 -0.03 -0.00    +0.052    18.086
ATOM     39  C   UNL d   1       7.775  21.393  -4.595 -0.03 +0.01    +0.115    18.086
ATOM     40  C   UNL d   1       7.325  20.493  -3.471 -0.09 +0.03    +0.139    18.086
ATOM     41  O   UNL d   1       7.795  20.638  -2.354 +0.03 -0.03    -0.650    18.086
ATOM     42  O   UNL d   1       6.373  19.560  -3.664 +0.04 -0.45    -0.776    18.086
ATOM     43  H   UNL d   1       5.761  19.611  -4.408 +0.03 +0.14    +0.167    18.086
ATOM     44  C   UNL d   1       7.208  13.476 -13.115 -0.32 +0.00    +0.004    18.086
ATOM     45  C   UNL d   1       6.280  12.594 -13.485 -0.31 +0.00    +0.012    18.086
ATOM     46  C   UNL d   1      12.618  14.308  -7.027 -0.36 -0.00    +0.004    18.086
ATOM     47  C   UNL d   1      13.241  13.131  -6.888 -0.40 -0.00    +0.012    18.086
TER
ENDMDL
MODEL       95
USER    Run = 95
USER    Cluster Rank = 44
USER    Number of conformations in this cluster = 1
USER  
USER    RMSD from reference structure       = 46.125 A
USER  
USER    Estimated Free Energy of Binding    =   -4.60 kcal/mol  [=(1)+(2)+(3)-(4)]
USER    Estimated Inhibition Constant, Ki   =  426.51 uM (micromolar)  [Temperature = 298.15 K]
USER    
USER    (1) Final Intermolecular Energy     =   -7.58 kcal/mol
USER        vdW + Hbond + desolv Energy     =   -7.68 kcal/mol
USER        Electrostatic Energy            =   +0.10 kcal/mol
USER    (2) Final Total Internal Energy     =   -2.53 kcal/mol
USER    (3) Torsional Free Energy           =   +2.98 kcal/mol
USER    (4) Unbound System's Energy  [=(2)] =   -2.53 kcal/mol
USER    
USER    
USER  
USER    DPF = D:/Protein_go_brrr/autodock/final/mut_Y35F/heme_O2/dock.dpf
USER    NEWDPF move	heme_O2_opt.pdbqt
USER    NEWDPF about	8.287000 34.468000 -0.670000
USER    NEWDPF tran0	-5.128228 -9.588347 -12.994315
USER    NEWDPF axisangle0	0.941171 0.220654 -0.255949 -68.963036
USER    NEWDPF quaternion0	0.532835 0.124921 -0.144903 -0.824309
USER    NEWDPF dihe0	-152.50 -124.32 105.63 -160.13 49.94 130.20 97.26 -104.12 11.03 -27.08 
USER  
USER                              x       y       z    vdW   Elec        q     RMS 
ATOM      1  C   UNL d   1      -6.679  -8.424 -12.134 -0.21 -0.01    +0.064    46.125
ATOM      2  C   UNL d   1      -6.413 -13.003 -13.368 -0.19 -0.00    +0.064    46.125
ATOM      3  C   UNL d   1      -1.919 -12.408 -14.963 -0.10 +0.00    +0.064    46.125
ATOM      4  C   UNL d   1      -2.010  -7.808 -13.260 -0.20 +0.00    +0.064    46.125
ATOM      5  C   UNL d   1      -6.972  -9.718 -12.338 -0.20 -0.01    +0.066    46.125
ATOM      6  C   UNL d   1      -8.206 -10.299 -12.030 -0.30 +0.00    -0.021    46.125
ATOM      7  C   UNL d   1      -8.116 -11.634 -12.346 -0.28 +0.00    -0.025    46.125
ATOM      8  C   UNL d   1      -6.846 -11.822 -12.884 -0.19 -0.01    +0.066    46.125
ATOM      9  C   UNL d   1      -9.204 -12.657 -12.103 -0.29 -0.00    +0.051    46.125
ATOM     10  C   UNL d   1      -5.101 -13.256 -13.965 -0.17 +0.00    +0.066    46.125
ATOM     11  C   UNL d   1      -4.763 -14.456 -14.599 -0.19 -0.00    -0.021    46.125
ATOM     12  C   UNL d   1      -3.477 -14.298 -15.081 -0.13 +0.00    +0.000    46.125
ATOM     13  C   UNL d   1      -3.090 -12.985 -14.695 -0.11 +0.00    +0.070    46.125
ATOM     14  C   UNL d   1      -5.639 -15.693 -14.762 -0.14 +0.01    +0.052    46.125
ATOM     15  C   UNL d   1      -1.476 -11.095 -14.559 -0.13 -0.00    +0.066    46.125
ATOM     16  C   UNL d   1      -0.179 -10.611 -14.729 -0.17 -0.00    -0.021    46.125
ATOM     17  C   UNL d   1      -0.181  -9.301 -14.250 -0.22 +0.00    +0.000    46.125
ATOM     18  C   UNL d   1      -1.497  -9.081 -13.819 -0.19 -0.00    +0.070    46.125
ATOM     19  C   UNL d   1       0.947 -11.451 -15.277 -0.14 +0.00    +0.052    46.125
ATOM     20  C   UNL d   1      -3.254  -7.576 -12.798 -0.13 +0.00    +0.066    46.125
ATOM     21  C   UNL d   1      -3.685  -6.350 -12.298 -0.22 -0.00    -0.025    46.125
ATOM     22  C   UNL d   1      -5.020  -6.499 -11.997 -0.21 +0.00    -0.021    46.125
ATOM     23  C   UNL d   1      -5.352  -7.821 -12.309 -0.16 -0.00    +0.066    46.125
ATOM     24  C   UNL d   1      -2.863  -5.101 -12.113 -0.10 +0.00    +0.051    46.125
ATOM     25  N   UNL d   1      -6.119 -10.656 -12.818 -0.09 +0.03    -0.248    46.125
ATOM     26  N   UNL d   1      -4.082 -12.360 -14.011 -0.09 +0.01    -0.248    46.125
ATOM     27  N   UNL d   1      -2.249 -10.204 -13.945 -0.10 +0.01    -0.248    46.125
ATOM     28  N   UNL d   1      -4.264  -8.485 -12.753 -0.06 +0.01    -0.248    46.125
ATOM     29 FE   UNL d   1      -4.171 -10.408 -13.378 -0.04 -0.00    +0.000    46.125
ATOM     30  O   UNL d   1      -4.352 -11.288 -12.107 -0.43 -0.00    +0.000    46.125
ATOM     31  O   UNL d   1      -3.167 -10.253 -12.178 -0.26 -0.00    +0.000    46.125
ATOM     32  C   UNL d   1      -9.381  -9.658 -11.337 -0.37 -0.01    +0.052    46.125
ATOM     33  C   UNL d   1     -10.411  -9.098 -12.313 -0.18 -0.01    +0.115    46.125
ATOM     34  C   UNL d   1     -10.066  -7.705 -12.777 -0.15 -0.02    +0.139    46.125
ATOM     35  O   UNL d   1     -10.634  -6.745 -12.280 -0.03 +0.09    -0.650    46.125
ATOM     36  O   UNL d   1      -9.160  -7.493 -13.754 +0.02 +0.06    -0.776    46.125
ATOM     37  H   UNL d   1      -8.643  -6.681 -13.804 +0.02 -0.01    +0.167    46.125
ATOM     38  C   UNL d   1      -5.906  -5.445 -11.385 -0.24 -0.00    +0.052    46.125
ATOM     39  C   UNL d   1      -6.296  -4.360 -12.385 -0.13 +0.01    +0.115    46.125
ATOM     40  C   UNL d   1      -7.336  -4.831 -13.371 -0.08 +0.00    +0.139    46.125
ATOM     41  O   UNL d   1      -6.990  -5.425 -14.379 +0.01 +0.00    -0.650    46.125
ATOM     42  O   UNL d   1      -8.650  -4.654 -13.134 -0.32 -0.05    -0.776    46.125
ATOM     43  H   UNL d   1      -9.261  -5.399 -13.095 +0.00 +0.00    +0.167    46.125
ATOM     44  C   UNL d   1      -2.763 -15.395 -15.843 -0.11 +0.00    +0.004    46.125
ATOM     45  C   UNL d   1      -2.164 -16.478 -15.349 -0.15 +0.00    +0.012    46.125
ATOM     46  C   UNL d   1       0.932  -8.296 -14.116 -0.23 +0.00    +0.004    46.125
ATOM     47  C   UNL d   1       0.930  -7.144 -13.433 -0.32 +0.00    +0.012    46.125
TER
ENDMDL
MODEL        4
USER    Run = 4
USER    Cluster Rank = 45
USER    Number of conformations in this cluster = 1
USER  
USER    RMSD from reference structure       = 27.413 A
USER  
USER    Estimated Free Energy of Binding    =   -4.56 kcal/mol  [=(1)+(2)+(3)-(4)]
USER    Estimated Inhibition Constant, Ki   =  457.75 uM (micromolar)  [Temperature = 298.15 K]
USER    
USER    (1) Final Intermolecular Energy     =   -7.54 kcal/mol
USER        vdW + Hbond + desolv Energy     =   -5.57 kcal/mol
USER        Electrostatic Energy            =   -1.96 kcal/mol
USER    (2) Final Total Internal Energy     =   -2.02 kcal/mol
USER    (3) Torsional Free Energy           =   +2.98 kcal/mol
USER    (4) Unbound System's Energy  [=(2)] =   -2.02 kcal/mol
USER    
USER    
USER  
USER    DPF = D:/Protein_go_brrr/autodock/final/mut_Y35F/heme_O2/dock.dpf
USER    NEWDPF move	heme_O2_opt.pdbqt
USER    NEWDPF about	8.287000 34.468000 -0.670000
USER    NEWDPF tran0	13.870306 5.844160 8.379794
USER    NEWDPF axisangle0	-0.475133 -0.088363 0.875466 -136.209023
USER    NEWDPF quaternion0	-0.440860 -0.081989 0.812315 -0.372915
USER    NEWDPF dihe0	48.15 86.42 66.32 76.96 56.65 32.42 180.00 85.18 -159.17 175.66 
USER  
USER                              x       y       z    vdW   Elec        q     RMS 
ATOM      1  C   UNL d   1      14.794   3.993   8.848 -0.04 +0.03    +0.064    27.413
ATOM      2  C   UNL d   1      12.976   7.447  11.555 -0.01 +0.03    +0.064    27.413
ATOM      3  C   UNL d   1      11.858  10.035   7.663 -0.11 +0.01    +0.064    27.413
ATOM      4  C   UNL d   1      13.292   6.278   4.853 -0.22 +0.02    +0.064    27.413
ATOM      5  C   UNL d   1      14.389   4.720   9.902 -0.04 +0.04    +0.066    27.413
ATOM      6  C   UNL d   1      14.554   4.329  11.234 -0.02 -0.01    -0.021    27.413
ATOM      7  C   UNL d   1      13.989   5.308  12.017 -0.02 -0.01    -0.025    27.413
ATOM      8  C   UNL d   1      13.538   6.294  11.144 -0.02 +0.04    +0.066    27.413
ATOM      9  C   UNL d   1      13.879   5.253  13.525 -0.00 +0.01    +0.051    27.413
ATOM     10  C   UNL d   1      12.504   8.527  10.688 -0.03 +0.03    +0.066    27.413
ATOM     11  C   UNL d   1      12.079   9.771  11.169 -0.06 -0.01    -0.021    27.413
ATOM     12  C   UNL d   1      11.770  10.537  10.061 -0.11 +0.00    +0.000    27.413
ATOM     13  C   UNL d   1      12.017   9.695   8.942 -0.07 +0.02    +0.070    27.413
ATOM     14  C   UNL d   1      11.999  10.218  12.624 -0.05 +0.02    +0.052    27.413
ATOM     15  C   UNL d   1      12.064   9.201   6.503 -0.09 +0.01    +0.066    27.413
ATOM     16  C   UNL d   1      11.723   9.562   5.199 -0.17 -0.00    -0.021    27.413
ATOM     17  C   UNL d   1      12.122   8.506   4.381 -0.28 +0.00    +0.000    27.413
ATOM     18  C   UNL d   1      12.685   7.568   5.258 -0.19 +0.02    +0.070    27.413
ATOM     19  C   UNL d   1      11.006  10.845   4.862 -0.11 +0.00    +0.052    27.413
ATOM     20  C   UNL d   1      13.801   5.336   5.671 -0.20 +0.03    +0.066    27.413
ATOM     21  C   UNL d   1      14.376   4.148   5.230 -0.29 -0.01    -0.025    27.413
ATOM     22  C   UNL d   1      14.834   3.496   6.354 -0.16 -0.01    -0.021    27.413
ATOM     23  C   UNL d   1      14.504   4.307   7.444 -0.08 +0.03    +0.066    27.413
ATOM     24  C   UNL d   1      14.480   3.656   3.810 -0.48 +0.01    +0.051    27.413
ATOM     25  N   UNL d   1      13.725   5.901   9.839 -0.03 -0.16    -0.248    27.413
ATOM     26  N   UNL d   1      12.459   8.473   9.332 -0.02 -0.10    -0.248    27.413
ATOM     27  N   UNL d   1      12.573   7.973   6.548 -0.04 -0.07    -0.248    27.413
ATOM     28  N   UNL d   1      13.837   5.403   7.029 -0.06 -0.13    -0.248    27.413
ATOM     29 FE   UNL d   1      13.152   6.928   8.170 -0.02 +0.00    +0.000    27.413
ATOM     30  O   UNL d   1      11.962   6.354   8.994 -0.15 +0.00    +0.000    27.413
ATOM     31  O   UNL d   1      11.916   6.307   7.420 -0.25 +0.00    +0.000    27.413
ATOM     32  C   UNL d   1      15.098   3.022  11.751 -0.01 +0.02    +0.052    27.413
ATOM     33  C   UNL d   1      14.104   1.873  11.617 -0.03 +0.05    +0.115    27.413
ATOM     34  C   UNL d   1      12.781   2.320  11.045 -0.06 +0.13    +0.139    27.413
ATOM     35  O   UNL d   1      11.868   2.619  11.798 -0.08 -0.71    -0.650    27.413
ATOM     36  O   UNL d   1      12.572   2.371   9.713 -0.34 -1.17    -0.776    27.413
ATOM     37  H   UNL d   1      12.799   1.636   9.132 +0.02 +0.15    +0.167    27.413
ATOM     38  C   UNL d   1      15.493   2.141   6.376 -0.17 +0.01    +0.052    27.413
ATOM     39  C   UNL d   1      14.479   1.000   6.354 -0.25 +0.03    +0.115    27.413
ATOM     40  C   UNL d   1      14.168   0.479   7.734 -0.17 +0.04    +0.139    27.413
ATOM     41  O   UNL d   1      13.331  -0.399   7.877 -0.02 -0.19    -0.650    27.413
ATOM     42  O   UNL d   1      14.836   0.928   8.815 +0.05 -0.24    -0.776    27.413
ATOM     43  H   UNL d   1      14.533   1.698   9.311 +0.03 +0.07    +0.167    27.413
ATOM     44  C   UNL d   1      11.277  11.964  10.183 -0.20 +0.00    +0.004    27.413
ATOM     45  C   UNL d   1      10.105  12.462   9.790 -0.25 +0.00    +0.012    27.413
ATOM     46  C   UNL d   1      11.968   8.291   2.899 -0.40 -0.00    +0.004    27.413
ATOM     47  C   UNL d   1      12.587   8.934   1.900 -0.29 -0.00    +0.012    27.413
TER
ENDMDL
MODEL       29
USER    Run = 29
USER    Cluster Rank = 46
USER    Number of conformations in this cluster = 3
USER  
USER    RMSD from reference structure       = 34.266 A
USER  
USER    Estimated Free Energy of Binding    =   -4.55 kcal/mol  [=(1)+(2)+(3)-(4)]
USER    Estimated Inhibition Constant, Ki   =  460.79 uM (micromolar)  [Temperature = 298.15 K]
USER    
USER    (1) Final Intermolecular Energy     =   -7.53 kcal/mol
USER        vdW + Hbond + desolv Energy     =   -6.36 kcal/mol
USER        Electrostatic Energy            =   -1.18 kcal/mol
USER    (2) Final Total Internal Energy     =   -2.14 kcal/mol
USER    (3) Torsional Free Energy           =   +2.98 kcal/mol
USER    (4) Unbound System's Energy  [=(2)] =   -2.14 kcal/mol
USER    
USER    
USER  
USER    DPF = D:/Protein_go_brrr/autodock/final/mut_Y35F/heme_O2/dock.dpf
USER    NEWDPF move	heme_O2_opt.pdbqt
USER    NEWDPF about	8.287000 34.468000 -0.670000
USER    NEWDPF tran0	2.233946 2.668816 -15.049862
USER    NEWDPF axisangle0	-0.779038 -0.486870 0.395040 -132.970325
USER    NEWDPF quaternion0	-0.714345 -0.446439 0.362235 -0.398987
USER    NEWDPF dihe0	144.50 132.70 -42.43 118.40 -62.65 -12.11 96.19 -81.67 10.04 -34.45 
USER  
USER                              x       y       z    vdW   Elec        q     RMS 
ATOM      1  C   UNL d   1       2.509   0.568 -14.951 -0.08 +0.01    +0.064    34.266
ATOM      2  C   UNL d   1      -1.283   3.343 -14.258 -0.12 +0.00    +0.064    34.266
ATOM      3  C   UNL d   1       1.330   7.284 -15.114 -0.27 -0.01    +0.064    34.266
ATOM      4  C   UNL d   1       5.126   4.412 -16.298 -0.24 -0.01    +0.064    34.266
ATOM      5  C   UNL d   1       1.264   1.001 -14.694 -0.12 +0.00    +0.066    34.266
ATOM      6  C   UNL d   1       0.195   0.161 -14.369 -0.10 -0.00    -0.021    34.266
ATOM      7  C   UNL d   1      -0.914   0.960 -14.211 -0.09 -0.00    -0.025    34.266
ATOM      8  C   UNL d   1      -0.480   2.270 -14.396 -0.11 +0.00    +0.066    34.266
ATOM      9  C   UNL d   1      -2.311   0.455 -13.926 -0.08 +0.00    +0.051    34.266
ATOM     10  C   UNL d   1      -0.880   4.741 -14.417 -0.16 -0.00    +0.066    34.266
ATOM     11  C   UNL d   1      -1.712   5.822 -14.102 -0.15 +0.00    -0.021    34.266
ATOM     12  C   UNL d   1      -0.970   6.967 -14.326 -0.15 -0.00    +0.000    34.266
ATOM     13  C   UNL d   1       0.296   6.510 -14.786 -0.23 -0.01    +0.070    34.266
ATOM     14  C   UNL d   1      -3.144   5.763 -13.584 -0.11 +0.00    +0.052    34.266
ATOM     15  C   UNL d   1       2.615   6.863 -15.617 -0.10 -0.02    +0.066    34.266
ATOM     16  C   UNL d   1       3.598   7.727 -16.098 -0.21 +0.00    -0.021    34.266
ATOM     17  C   UNL d   1       4.690   6.930 -16.443 -0.22 -0.00    +0.000    34.266
ATOM     18  C   UNL d   1       4.286   5.622 -16.140 -0.24 -0.01    +0.070    34.266
ATOM     19  C   UNL d   1       3.389   9.214 -16.237 -0.18 -0.01    +0.052    34.266
ATOM     20  C   UNL d   1       4.756   3.139 -16.059 -0.19 -0.00    +0.066    34.266
ATOM     21  C   UNL d   1       5.597   2.040 -16.209 -0.17 +0.00    -0.025    34.266
ATOM     22  C   UNL d   1       4.877   0.939 -15.804 -0.11 -0.00    -0.021    34.266
ATOM     23  C   UNL d   1       3.611   1.406 -15.436 +0.01 +0.00    +0.066    34.266
ATOM     24  C   UNL d   1       7.016   2.040 -16.718 -0.15 -0.00    +0.051    34.266
ATOM     25  N   UNL d   1       0.847   2.289 -14.758 -0.06 -0.01    -0.248    34.266
ATOM     26  N   UNL d   1       0.340   5.155 -14.843 -0.11 +0.01    -0.248    34.266
ATOM     27  N   UNL d   1       2.999   5.593 -15.711 -0.15 +0.04    -0.248    34.266
ATOM     28  N   UNL d   1       3.528   2.738 -15.636 -0.06 -0.00    -0.248    34.266
ATOM     29 FE   UNL d   1       1.947   3.940 -15.243 -0.05 -0.00    +0.000    34.266
ATOM     30  O   UNL d   1       0.856   3.581 -16.294 -0.11 -0.00    +0.000    34.266
ATOM     31  O   UNL d   1       2.273   4.074 -16.776 -0.13 -0.00    +0.000    34.266
ATOM     32  C   UNL d   1       0.179  -1.345 -14.342 -0.09 +0.01    +0.052    34.266
ATOM     33  C   UNL d   1       0.470  -1.916 -12.958 -0.16 +0.03    +0.115    34.266
ATOM     34  C   UNL d   1       1.948  -2.061 -12.694 -0.16 +0.07    +0.139    34.266
ATOM     35  O   UNL d   1       2.378  -1.898 -11.563 -0.45 -0.45    -0.650    34.266
ATOM     36  O   UNL d   1       2.816  -2.340 -13.689 +0.02 -0.47    -0.776    34.266
ATOM     37  H   UNL d   1       3.708  -1.976 -13.706 +0.04 +0.10    +0.167    34.266
ATOM     38  C   UNL d   1       5.362  -0.487 -15.832 -0.10 +0.00    +0.052    34.266
ATOM     39  C   UNL d   1       6.491  -0.738 -14.834 -0.15 +0.01    +0.115    34.266
ATOM     40  C   UNL d   1       5.996  -1.334 -13.541 -0.26 +0.05    +0.139    34.266
ATOM     41  O   UNL d   1       6.566  -2.301 -13.062 -0.03 -0.33    -0.650    34.266
ATOM     42  O   UNL d   1       4.962  -0.786 -12.873 +0.02 -0.30    -0.776    34.266
ATOM     43  H   UNL d   1       4.254  -1.328 -12.505 +0.06 +0.11    +0.167    34.266
ATOM     44  C   UNL d   1      -1.536   8.351 -14.085 -0.19 -0.00    +0.004    34.266
ATOM     45  C   UNL d   1      -0.966   9.368 -13.440 -0.25 -0.00    +0.012    34.266
ATOM     46  C   UNL d   1       6.014   7.284 -17.067 -0.17 -0.00    +0.004    34.266
ATOM     47  C   UNL d   1       7.230   7.242 -16.508 -0.22 -0.00    +0.012    34.266
TER
ENDMDL
MODEL       75
USER    Run = 75
USER    Cluster Rank = 47
USER    Number of conformations in this cluster = 1
USER  
USER    RMSD from reference structure       = 33.840 A
USER  
USER    Estimated Free Energy of Binding    =   -4.46 kcal/mol  [=(1)+(2)+(3)-(4)]
USER    Estimated Inhibition Constant, Ki   =  540.45 uM (micromolar)  [Temperature = 298.15 K]
USER    
USER    (1) Final Intermolecular Energy     =   -7.44 kcal/mol
USER        vdW + Hbond + desolv Energy     =   -3.81 kcal/mol
USER        Electrostatic Energy            =   -3.63 kcal/mol
USER    (2) Final Total Internal Energy     =   -2.43 kcal/mol
USER    (3) Torsional Free Energy           =   +2.98 kcal/mol
USER    (4) Unbound System's Energy  [=(2)] =   -2.43 kcal/mol
USER    
USER    
USER  
USER    DPF = D:/Protein_go_brrr/autodock/final/mut_Y35F/heme_O2/dock.dpf
USER    NEWDPF move	heme_O2_opt.pdbqt
USER    NEWDPF about	8.287000 34.468000 -0.670000
USER    NEWDPF tran0	-15.727777 6.606124 5.020155
USER    NEWDPF axisangle0	0.589960 0.716325 -0.372593 -86.489616
USER    NEWDPF quaternion0	0.404192 0.490766 -0.255270 -0.728433
USER    NEWDPF dihe0	25.95 126.53 47.29 -109.80 72.87 -41.65 146.38 118.37 -143.42 -177.04 
USER  
USER                              x       y       z    vdW   Elec        q     RMS 
ATOM      1  C   UNL d   1     -16.397   7.558   6.793 +0.00 +0.03    +0.064    33.840
ATOM      2  C   UNL d   1     -16.152   2.995   5.498 -0.04 +0.02    +0.064    33.840
ATOM      3  C   UNL d   1     -14.391   4.215   1.197 -0.10 +0.01    +0.064    33.840
ATOM      4  C   UNL d   1     -14.190   8.882   2.693 -0.06 +0.01    +0.064    33.840
ATOM      5  C   UNL d   1     -16.473   6.217   6.793 -0.02 +0.03    +0.066    33.840
ATOM      6  C   UNL d   1     -16.962   5.460   7.861 -0.08 -0.01    -0.021    33.840
ATOM      7  C   UNL d   1     -16.852   4.137   7.504 -0.20 -0.02    -0.025    33.840
ATOM      8  C   UNL d   1     -16.342   4.124   6.209 -0.14 +0.03    +0.066    33.840
ATOM      9  C   UNL d   1     -17.198   2.967   8.399 +0.06 +0.04    +0.051    33.840
ATOM     10  C   UNL d   1     -15.643   2.919   4.128 -0.14 +0.02    +0.066    33.840
ATOM     11  C   UNL d   1     -15.619   1.737   3.380 -0.21 -0.00    -0.021    33.840
ATOM     12  C   UNL d   1     -15.131   2.072   2.131 -0.14 +0.00    +0.000    33.840
ATOM     13  C   UNL d   1     -14.867   3.468   2.193 -0.08 +0.01    +0.070    33.840
ATOM     14  C   UNL d   1     -16.069   0.352   3.830 -0.37 +0.02    +0.052    33.840
ATOM     15  C   UNL d   1     -14.077   5.623   1.230 -0.06 +0.01    +0.066    33.840
ATOM     16  C   UNL d   1     -13.427   6.312   0.207 -0.06 -0.00    -0.021    33.840
ATOM     17  C   UNL d   1     -13.357   7.645   0.612 -0.08 +0.00    +0.000    33.840
ATOM     18  C   UNL d   1     -13.980   7.670   1.867 -0.07 +0.01    +0.070    33.840
ATOM     19  C   UNL d   1     -12.886   5.635  -1.027 -0.11 +0.00    +0.052    33.840
ATOM     20  C   UNL d   1     -14.744   8.935   3.920 -0.03 +0.01    +0.066    33.840
ATOM     21  C   UNL d   1     -14.931  10.110   4.643 -0.01 -0.00    -0.025    33.840
ATOM     22  C   UNL d   1     -15.583   9.755   5.802 +0.00 -0.01    -0.021    33.840
ATOM     23  C   UNL d   1     -15.755   8.368   5.752 +0.00 +0.02    +0.066    33.840
ATOM     24  C   UNL d   1     -14.505  11.500   4.248 -0.02 +0.00    +0.051    33.840
ATOM     25  N   UNL d   1     -16.048   5.403   5.796 -0.02 -0.11    -0.248    33.840
ATOM     26  N   UNL d   1     -15.177   3.975   3.413 -0.04 -0.06    -0.248    33.840
ATOM     27  N   UNL d   1     -14.343   6.422   2.259 -0.03 -0.05    -0.248    33.840
ATOM     28  N   UNL d   1     -15.204   7.868   4.627 -0.01 -0.06    -0.248    33.840
ATOM     29 FE   UNL d   1     -15.189   5.936   4.022 -0.02 +0.00    +0.000    33.840
ATOM     30  O   UNL d   1     -14.225   5.186   4.986 -0.22 +0.00    +0.000    33.840
ATOM     31  O   UNL d   1     -13.692   6.405   4.142 +0.02 +0.00    +0.000    33.840
ATOM     32  C   UNL d   1     -17.391   5.951   9.220 -0.05 +0.03    +0.052    33.840
ATOM     33  C   UNL d   1     -16.271   6.664   9.972 -0.07 +0.09    +0.115    33.840
ATOM     34  C   UNL d   1     -14.919   6.046   9.713 -0.15 +0.19    +0.139    33.840
ATOM     35  O   UNL d   1     -14.608   5.014  10.285 -0.09 -1.21    -0.650    33.840
ATOM     36  O   UNL d   1     -14.029   6.625   8.881 +0.04 -1.23    -0.776    33.840
ATOM     37  H   UNL d   1     -14.028   7.574   8.714 +0.03 +0.27    +0.167    33.840
ATOM     38  C   UNL d   1     -15.960  10.692   6.920 +0.00 +0.01    +0.052    33.840
ATOM     39  C   UNL d   1     -14.757  11.097   7.770 -0.03 +0.05    +0.115    33.840
ATOM     40  C   UNL d   1     -14.124   9.921   8.470 +0.06 +0.16    +0.139    33.840
ATOM     41  O   UNL d   1     -13.087   9.445   8.039 -0.34 -0.89    -0.650    33.840
ATOM     42  O   UNL d   1     -14.657   9.415   9.599 -0.19 -1.34    -0.776    33.840
ATOM     43  H   UNL d   1     -14.833   8.471   9.695 +0.01 +0.29    +0.167    33.840
ATOM     44  C   UNL d   1     -14.967   1.044   1.030 -0.23 +0.00    +0.004    33.840
ATOM     45  C   UNL d   1     -13.944   0.902   0.189 -0.31 +0.00    +0.012    33.840
ATOM     46  C   UNL d   1     -12.722   8.844  -0.040 -0.09 -0.00    +0.004    33.840
ATOM     47  C   UNL d   1     -11.707   9.593   0.412 -0.11 -0.00    +0.012    33.840
TER
ENDMDL
MODEL       77
USER    Run = 77
USER    Cluster Rank = 48
USER    Number of conformations in this cluster = 1
USER  
USER    RMSD from reference structure       = 34.112 A
USER  
USER    Estimated Free Energy of Binding    =   -4.31 kcal/mol  [=(1)+(2)+(3)-(4)]
USER    Estimated Inhibition Constant, Ki   =  695.30 uM (micromolar)  [Temperature = 298.15 K]
USER    
USER    (1) Final Intermolecular Energy     =   -7.29 kcal/mol
USER        vdW + Hbond + desolv Energy     =   -6.65 kcal/mol
USER        Electrostatic Energy            =   -0.65 kcal/mol
USER    (2) Final Total Internal Energy     =   -1.79 kcal/mol
USER    (3) Torsional Free Energy           =   +2.98 kcal/mol
USER    (4) Unbound System's Energy  [=(2)] =   -1.79 kcal/mol
USER    
USER    
USER  
USER    DPF = D:/Protein_go_brrr/autodock/final/mut_Y35F/heme_O2/dock.dpf
USER    NEWDPF move	heme_O2_opt.pdbqt
USER    NEWDPF about	8.287000 34.468000 -0.670000
USER    NEWDPF tran0	0.792976 2.475393 -14.245041
USER    NEWDPF axisangle0	0.954974 0.035887 -0.294513 135.444308
USER    NEWDPF quaternion0	0.883691 0.033208 -0.272529 0.379098
USER    NEWDPF dihe0	123.95 26.11 -76.85 117.95 -110.53 119.90 156.57 -177.74 9.04 -15.14 
USER  
USER                              x       y       z    vdW   Elec        q     RMS 
ATOM      1  C   UNL d   1      -0.479   1.030 -13.354 -0.14 +0.00    +0.064    34.112
ATOM      2  C   UNL d   1      -0.956   5.696 -14.105 -0.16 -0.00    +0.064    34.112
ATOM      3  C   UNL d   1       3.415   5.917 -16.089 -0.24 -0.01    +0.064    34.112
ATOM      4  C   UNL d   1       3.725   1.033 -15.756 -0.08 +0.00    +0.064    34.112
ATOM      5  C   UNL d   1      -0.966   2.281 -13.398 -0.15 +0.00    +0.066    34.112
ATOM      6  C   UNL d   1      -2.216   2.652 -12.894 -0.14 -0.00    -0.021    34.112
ATOM      7  C   UNL d   1      -2.373   3.994 -13.150 -0.14 -0.00    -0.025    34.112
ATOM      8  C   UNL d   1      -1.195   4.416 -13.760 -0.15 -0.00    +0.066    34.112
ATOM      9  C   UNL d   1      -3.619   4.794 -12.838 -0.11 +0.00    +0.051    34.112
ATOM     10  C   UNL d   1       0.268   6.202 -14.727 -0.21 -0.01    +0.066    34.112
ATOM     11  C   UNL d   1       0.530   7.564 -14.914 -0.25 +0.00    -0.021    34.112
ATOM     12  C   UNL d   1       1.793   7.649 -15.469 -0.24 -0.00    +0.000    34.112
ATOM     13  C   UNL d   1       2.236   6.304 -15.602 -0.18 -0.01    +0.070    34.112
ATOM     14  C   UNL d   1      -0.376   8.735 -14.554 -0.22 -0.00    +0.052    34.112
ATOM     15  C   UNL d   1       3.887   4.566 -16.274 -0.21 -0.00    +0.066    34.112
ATOM     16  C   UNL d   1       5.063   4.223 -16.940 -0.17 +0.00    -0.021    34.112
ATOM     17  C   UNL d   1       5.172   2.835 -16.858 -0.14 -0.00    +0.000    34.112
ATOM     18  C   UNL d   1       4.040   2.430 -16.137 -0.15 -0.00    +0.070    34.112
ATOM     19  C   UNL d   1       5.939   5.235 -17.635 -0.11 -0.00    +0.052    34.112
ATOM     20  C   UNL d   1       2.627   0.605 -15.103 -0.08 +0.01    +0.066    34.112
ATOM     21  C   UNL d   1       2.394  -0.723 -14.756 -0.10 -0.00    -0.025    34.112
ATOM     22  C   UNL d   1       1.213  -0.739 -14.047 -0.12 -0.00    -0.021    34.112
ATOM     23  C   UNL d   1       0.759   0.583 -14.003 -0.13 +0.00    +0.066    34.112
ATOM     24  C   UNL d   1       3.251  -1.917 -15.088 -0.10 +0.01    +0.051    34.112
ATOM     25  N   UNL d   1      -0.356   3.347 -13.972 -0.07 -0.00    -0.248    34.112
ATOM     26  N   UNL d   1       1.300   5.430 -15.153 +0.01 +0.02    -0.248    34.112
ATOM     27  N   UNL d   1       3.234   3.485 -15.856 -0.08 +0.00    -0.248    34.112
ATOM     28  N   UNL d   1       1.599   1.390 -14.685 -0.08 -0.01    -0.248    34.112
ATOM     29 FE   UNL d   1       1.453   3.395 -14.919 -0.04 +0.00    +0.000    34.112
ATOM     30  O   UNL d   1       0.241   3.635 -15.866 -0.11 -0.00    +0.000    34.112
ATOM     31  O   UNL d   1       1.450   2.751 -16.354 -0.11 -0.00    +0.000    34.112
ATOM     32  C   UNL d   1      -3.281   1.756 -12.317 -0.12 +0.00    +0.052    34.112
ATOM     33  C   UNL d   1      -3.184   1.620 -10.801 -0.26 +0.01    +0.115    34.112
ATOM     34  C   UNL d   1      -1.783   1.855 -10.291 -0.39 +0.01    +0.139    34.112
ATOM     35  O   UNL d   1      -1.483   2.947  -9.835 -0.03 -0.06    -0.650    34.112
ATOM     36  O   UNL d   1      -0.841   0.892 -10.354 +0.03 -0.05    -0.776    34.112
ATOM     37  H   UNL d   1       0.005   1.033 -10.794 +0.10 +0.01    +0.167    34.112
ATOM     38  C   UNL d   1       0.533  -1.968 -13.502 -0.16 +0.01    +0.052    34.112
ATOM     39  C   UNL d   1       1.046  -2.349 -12.115 -0.13 +0.05    +0.115    34.112
ATOM     40  C   UNL d   1       2.094  -1.393 -11.605 -0.34 +0.06    +0.139    34.112
ATOM     41  O   UNL d   1       3.277  -1.653 -11.755 -0.50 -0.55    -0.650    34.112
ATOM     42  O   UNL d   1       1.749  -0.225 -11.028 +0.04 -0.17    -0.776    34.112
ATOM     43  H   UNL d   1       0.914  -0.123 -10.556 +0.11 +0.03    +0.167    34.112
ATOM     44  C   UNL d   1       2.433   8.978 -15.810 -0.23 -0.00    +0.004    34.112
ATOM     45  C   UNL d   1       3.324   9.666 -15.097 -0.33 -0.00    +0.012    34.112
ATOM     46  C   UNL d   1       6.190   1.888 -17.435 -0.09 -0.00    +0.004    34.112
ATOM     47  C   UNL d   1       7.108   1.162 -16.785 -0.13 -0.00    +0.012    34.112
TER
ENDMDL
MODEL       98
USER    Run = 98
USER    Cluster Rank = 49
USER    Number of conformations in this cluster = 1
USER  
USER    RMSD from reference structure       = 21.922 A
USER  
USER    Estimated Free Energy of Binding    =   -4.29 kcal/mol  [=(1)+(2)+(3)-(4)]
USER    Estimated Inhibition Constant, Ki   =  713.37 uM (micromolar)  [Temperature = 298.15 K]
USER    
USER    (1) Final Intermolecular Energy     =   -7.28 kcal/mol
USER        vdW + Hbond + desolv Energy     =   -6.70 kcal/mol
USER        Electrostatic Energy            =   -0.58 kcal/mol
USER    (2) Final Total Internal Energy     =   -1.65 kcal/mol
USER    (3) Torsional Free Energy           =   +2.98 kcal/mol
USER    (4) Unbound System's Energy  [=(2)] =   -1.65 kcal/mol
USER    
USER    
USER  
USER    DPF = D:/Protein_go_brrr/autodock/final/mut_Y35F/heme_O2/dock.dpf
USER    NEWDPF move	heme_O2_opt.pdbqt
USER    NEWDPF about	8.287000 34.468000 -0.670000
USER    NEWDPF tran0	8.729329 14.931155 -11.199110
USER    NEWDPF axisangle0	-0.733986 0.524346 -0.431654 -80.071640
USER    NEWDPF quaternion0	-0.472149 0.337294 -0.277669 -0.765642
USER    NEWDPF dihe0	30.26 -122.11 -110.81 66.32 -124.82 16.44 142.87 -78.87 31.00 -19.08 
USER  
USER                              x       y       z    vdW   Elec        q     RMS 
ATOM      1  C   UNL d   1       7.014  16.134 -11.533 -0.13 +0.00    +0.064    21.922
ATOM      2  C   UNL d   1      10.337  16.155  -8.139 -0.19 -0.00    +0.064    21.922
ATOM      3  C   UNL d   1      12.547  12.391 -10.149 -0.07 -0.02    +0.064    21.922
ATOM      4  C   UNL d   1       9.407  12.660 -13.909 +0.08 -0.00    +0.064    21.922
ATOM      5  C   UNL d   1       7.739  16.448 -10.447 -0.13 +0.01    +0.066    21.922
ATOM      6  C   UNL d   1       7.416  17.482  -9.562 -0.12 -0.00    -0.021    21.922
ATOM      7  C   UNL d   1       8.401  17.517  -8.603 -0.14 -0.00    -0.025    21.922
ATOM      8  C   UNL d   1       9.272  16.472  -8.901 -0.17 +0.00    +0.066    21.922
ATOM      9  C   UNL d   1       8.487  18.535  -7.488 -0.13 +0.01    +0.051    21.922
ATOM     10  C   UNL d   1      11.273  15.058  -8.387 -0.21 -0.01    +0.066    21.922
ATOM     11  C   UNL d   1      12.263  14.671  -7.477 -0.27 +0.00    -0.021    21.922
ATOM     12  C   UNL d   1      12.900  13.576  -8.031 -0.29 -0.00    +0.000    21.922
ATOM     13  C   UNL d   1      12.255  13.359  -9.281 -0.24 -0.02    +0.070    21.922
ATOM     14  C   UNL d   1      12.571  15.302  -6.125 -0.26 -0.02    +0.052    21.922
ATOM     15  C   UNL d   1      11.942  12.160 -11.439 -0.23 -0.02    +0.066    21.922
ATOM     16  C   UNL d   1      12.402  11.232 -12.373 -0.24 +0.01    -0.021    21.922
ATOM     17  C   UNL d   1      11.523  11.292 -13.454 -0.17 -0.00    +0.000    21.922
ATOM     18  C   UNL d   1      10.578  12.263 -13.093 -0.08 -0.00    +0.070    21.922
ATOM     19  C   UNL d   1      13.657  10.420 -12.176 -0.33 -0.02    +0.052    21.922
ATOM     20  C   UNL d   1       8.507  13.618 -13.613 -0.16 +0.00    +0.066    21.922
ATOM     21  C   UNL d   1       7.413  13.935 -14.413 -0.13 -0.00    -0.025    21.922
ATOM     22  C   UNL d   1       6.705  14.905 -13.738 -0.12 -0.00    -0.021    21.922
ATOM     23  C   UNL d   1       7.406  15.156 -12.555 -0.16 +0.00    +0.066    21.922
ATOM     24  C   UNL d   1       7.064  13.347 -15.755 -0.09 -0.00    +0.051    21.922
ATOM     25  N   UNL d   1       8.900  15.856 -10.073 -0.11 -0.01    -0.248    21.922
ATOM     26  N   UNL d   1      11.270  14.268  -9.491 -0.13 +0.03    -0.248    21.922
ATOM     27  N   UNL d   1      10.891  12.832 -11.901 -0.15 +0.03    -0.248    21.922
ATOM     28  N   UNL d   1       8.524  14.404 -12.504 -0.13 -0.00    -0.248    21.922
ATOM     29 FE   UNL d   1       9.888  14.335 -11.010 -0.04 -0.00    +0.000    21.922
ATOM     30  O   UNL d   1      10.646  15.694 -11.049 -0.09 -0.00    +0.000    21.922
ATOM     31  O   UNL d   1      10.645  14.764 -12.320 -0.09 -0.00    +0.000    21.922
ATOM     32  C   UNL d   1       6.302  18.488  -9.687 -0.07 +0.01    +0.052    21.922
ATOM     33  C   UNL d   1       5.252  18.349  -8.589 -0.12 +0.04    +0.115    21.922
ATOM     34  C   UNL d   1       4.955  16.907  -8.257 -0.23 +0.06    +0.139    21.922
ATOM     35  O   UNL d   1       5.669  16.310  -7.468 -0.09 -0.43    -0.650    21.922
ATOM     36  O   UNL d   1       3.929  16.249  -8.836 +0.07 -0.22    -0.776    21.922
ATOM     37  H   UNL d   1       3.628  16.456  -9.728 +0.04 +0.03    +0.167    21.922
ATOM     38  C   UNL d   1       5.461  15.592 -14.239 -0.07 +0.00    +0.052    21.922
ATOM     39  C   UNL d   1       4.199  14.773 -13.979 -0.13 +0.00    +0.115    21.922
ATOM     40  C   UNL d   1       3.440  15.253 -12.767 -0.17 +0.00    +0.139    21.922
ATOM     41  O   UNL d   1       2.266  14.948 -12.627 -0.04 -0.00    -0.650    21.922
ATOM     42  O   UNL d   1       4.048  15.973 -11.805 +0.02 -0.05    -0.776    21.922
ATOM     43  H   UNL d   1       4.099  15.658 -10.895 +0.04 +0.02    +0.167    21.922
ATOM     44  C   UNL d   1      14.037  12.865  -7.327 -0.36 -0.00    +0.004    21.922
ATOM     45  C   UNL d   1      13.994  12.190  -6.179 -0.51 -0.00    +0.012    21.922
ATOM     46  C   UNL d   1      11.534  10.574 -14.777 -0.15 -0.00    +0.004    21.922
ATOM     47  C   UNL d   1      11.497   9.255 -15.005 -0.20 -0.00    +0.012    21.922
TER
ENDMDL
MODEL       49
USER    Run = 49
USER    Cluster Rank = 50
USER    Number of conformations in this cluster = 1
USER  
USER    RMSD from reference structure       = 38.508 A
USER  
USER    Estimated Free Energy of Binding    =   -4.18 kcal/mol  [=(1)+(2)+(3)-(4)]
USER    Estimated Inhibition Constant, Ki   =  863.97 uM (micromolar)  [Temperature = 298.15 K]
USER    
USER    (1) Final Intermolecular Energy     =   -7.16 kcal/mol
USER        vdW + Hbond + desolv Energy     =   -3.58 kcal/mol
USER        Electrostatic Energy            =   -3.58 kcal/mol
USER    (2) Final Total Internal Energy     =   -1.97 kcal/mol
USER    (3) Torsional Free Energy           =   +2.98 kcal/mol
USER    (4) Unbound System's Energy  [=(2)] =   -1.97 kcal/mol
USER    
USER    
USER  
USER    DPF = D:/Protein_go_brrr/autodock/final/mut_Y35F/heme_O2/dock.dpf
USER    NEWDPF move	heme_O2_opt.pdbqt
USER    NEWDPF about	8.287000 34.468000 -0.670000
USER    NEWDPF tran0	-19.359283 4.904236 9.355691
USER    NEWDPF axisangle0	-0.162060 -0.649557 0.742840 122.558541
USER    NEWDPF quaternion0	-0.142122 -0.569644 0.651450 0.480541
USER    NEWDPF dihe0	100.35 -163.80 59.01 -104.45 -110.65 122.49 -97.38 90.12 164.05 177.44 
USER  
USER                              x       y       z    vdW   Elec        q     RMS 
ATOM      1  C   UNL d   1     -18.244   6.542  10.113 -0.01 +0.02    +0.064    38.508
ATOM      2  C   UNL d   1     -19.635   2.437  12.055 -0.11 +0.01    +0.064    38.508
ATOM      3  C   UNL d   1     -21.866   1.165   7.993 -0.10 +0.00    +0.064    38.508
ATOM      4  C   UNL d   1     -20.037   5.170   5.830 -0.01 +0.01    +0.064    38.508
ATOM      5  C   UNL d   1     -18.439   5.528  10.972 -0.03 +0.02    +0.066    38.508
ATOM      6  C   UNL d   1     -17.966   5.516  12.287 -0.04 -0.01    -0.021    38.508
ATOM      7  C   UNL d   1     -18.331   4.309  12.837 -0.07 -0.01    -0.025    38.508
ATOM      8  C   UNL d   1     -19.058   3.638  11.857 -0.10 +0.01    +0.066    38.508
ATOM      9  C   UNL d   1     -17.957   3.843  14.227 -0.07 +0.01    +0.051    38.508
ATOM     10  C   UNL d   1     -20.428   1.695  11.074 -0.13 +0.01    +0.066    38.508
ATOM     11  C   UNL d   1     -21.140   0.530  11.382 -0.11 -0.00    -0.021    38.508
ATOM     12  C   UNL d   1     -21.804   0.158  10.228 -0.08 +0.00    +0.000    38.508
ATOM     13  C   UNL d   1     -21.442   1.131   9.256 -0.02 +0.00    +0.070    38.508
ATOM     14  C   UNL d   1     -21.206  -0.182  12.728 -0.08 +0.00    +0.052    38.508
ATOM     15  C   UNL d   1     -21.495   2.112   6.969 -0.10 +0.00    +0.066    38.508
ATOM     16  C   UNL d   1     -21.843   1.998   5.623 -0.07 -0.00    -0.021    38.508
ATOM     17  C   UNL d   1     -21.331   3.128   4.987 -0.04 +0.00    +0.000    38.508
ATOM     18  C   UNL d   1     -20.703   3.858   6.006 -0.05 +0.01    +0.070    38.508
ATOM     19  C   UNL d   1     -22.577   0.806   5.061 -0.06 +0.00    +0.052    38.508
ATOM     20  C   UNL d   1     -19.387   5.876   6.776 -0.01 +0.01    +0.066    38.508
ATOM     21  C   UNL d   1     -18.794   7.115   6.555 +0.00 -0.00    -0.025    38.508
ATOM     22  C   UNL d   1     -18.301   7.534   7.771 +0.01 -0.01    -0.021    38.508
ATOM     23  C   UNL d   1     -18.598   6.522   8.689 -0.00 +0.02    +0.066    38.508
ATOM     24  C   UNL d   1     -18.698   7.861   5.249 +0.01 +0.01    +0.051    38.508
ATOM     25  N   UNL d   1     -19.068   4.362  10.687 -0.04 -0.07    -0.248    38.508
ATOM     26  N   UNL d   1     -20.601   2.060   9.778 -0.08 -0.03    -0.248    38.508
ATOM     27  N   UNL d   1     -20.747   3.190   7.186 -0.07 -0.03    -0.248    38.508
ATOM     28  N   UNL d   1     -19.218   5.496   8.070 -0.01 -0.06    -0.248    38.508
ATOM     29 FE   UNL d   1     -19.905   3.789   8.915 -0.02 +0.00    +0.000    38.508
ATOM     30  O   UNL d   1     -18.647   2.963   9.311 -0.74 +0.00    +0.000    38.508
ATOM     31  O   UNL d   1     -18.865   3.382   7.808 -0.59 +0.00    +0.000    38.508
ATOM     32  C   UNL d   1     -17.087   6.537  12.962 -0.03 +0.02    +0.052    38.508
ATOM     33  C   UNL d   1     -15.696   6.000  13.283 -0.06 +0.07    +0.115    38.508
ATOM     34  C   UNL d   1     -14.781   6.020  12.083 -0.14 +0.15    +0.139    38.508
ATOM     35  O   UNL d   1     -13.987   6.936  11.945 -0.11 -1.31    -0.650    38.508
ATOM     36  O   UNL d   1     -14.839   5.058  11.139 -0.08 -1.06    -0.776    38.508
ATOM     37  H   UNL d   1     -15.293   5.193  10.299 +0.03 +0.22    +0.167    38.508
ATOM     38  C   UNL d   1     -17.533   8.807   8.016 +0.01 +0.02    +0.052    38.508
ATOM     39  C   UNL d   1     -16.060   8.681   7.632 -0.01 +0.06    +0.115    38.508
ATOM     40  C   UNL d   1     -15.201   8.227   8.785 -0.03 +0.15    +0.139    38.508
ATOM     41  O   UNL d   1     -14.653   9.055   9.495 -0.19 -1.17    -0.650    38.508
ATOM     42  O   UNL d   1     -15.066   6.920   9.080 +0.03 -0.91    -0.776    38.508
ATOM     43  H   UNL d   1     -14.756   6.627   9.945 +0.02 +0.25    +0.167    38.508
ATOM     44  C   UNL d   1     -22.695  -1.065  10.172 -0.08 +0.00    +0.004    38.508
ATOM     45  C   UNL d   1     -22.626  -2.091   9.325 -0.09 -0.00    +0.012    38.508
ATOM     46  C   UNL d   1     -21.337   3.533   3.537 -0.02 +0.00    +0.004    38.508
ATOM     47  C   UNL d   1     -20.298   3.612   2.695 -0.01 +0.00    +0.012    38.508
TER
ENDMDL
MODEL        6
USER    Run = 6
USER    Cluster Rank = 51
USER    Number of conformations in this cluster = 1
USER  
USER    RMSD from reference structure       = 30.755 A
USER  
USER    Estimated Free Energy of Binding    =   -4.11 kcal/mol  [=(1)+(2)+(3)-(4)]
USER    Estimated Inhibition Constant, Ki   =  973.67 uM (micromolar)  [Temperature = 298.15 K]
USER    
USER    (1) Final Intermolecular Energy     =   -7.09 kcal/mol
USER        vdW + Hbond + desolv Energy     =   -6.13 kcal/mol
USER        Electrostatic Energy            =   -0.96 kcal/mol
USER    (2) Final Total Internal Energy     =   -1.91 kcal/mol
USER    (3) Torsional Free Energy           =   +2.98 kcal/mol
USER    (4) Unbound System's Energy  [=(2)] =   -1.91 kcal/mol
USER    
USER    
USER  
USER    DPF = D:/Protein_go_brrr/autodock/final/mut_Y35F/heme_O2/dock.dpf
USER    NEWDPF move	heme_O2_opt.pdbqt
USER    NEWDPF about	8.287000 34.468000 -0.670000
USER    NEWDPF tran0	-1.525013 6.916501 -13.574174
USER    NEWDPF axisangle0	-0.894573 0.440287 0.076723 -135.508782
USER    NEWDPF quaternion0	-0.827990 0.407516 0.071012 -0.378578
USER    NEWDPF dihe0	-19.68 -5.75 -23.75 117.87 18.55 63.51 -103.10 -76.37 -170.95 -13.50 
USER  
USER                              x       y       z    vdW   Elec        q     RMS 
ATOM      1  C   UNL d   1      -3.346   7.301 -12.557 -0.13 +0.00    +0.064    30.755
ATOM      2  C   UNL d   1       0.121  10.149 -14.113 -0.17 -0.00    +0.064    30.755
ATOM      3  C   UNL d   1       2.607   6.378 -15.756 -0.19 -0.01    +0.064    30.755
ATOM      4  C   UNL d   1      -1.174   3.480 -14.587 -0.11 +0.00    +0.064    30.755
ATOM      5  C   UNL d   1      -2.607   8.383 -12.848 -0.15 -0.00    +0.066    30.755
ATOM      6  C   UNL d   1      -2.968   9.691 -12.513 -0.14 +0.00    -0.021    30.755
ATOM      7  C   UNL d   1      -1.986  10.521 -13.001 -0.16 +0.00    -0.025    30.755
ATOM      8  C   UNL d   1      -1.028   9.692 -13.579 -0.19 -0.00    +0.066    30.755
ATOM      9  C   UNL d   1      -2.013  12.032 -12.926 -0.13 -0.00    +0.051    30.755
ATOM     10  C   UNL d   1       1.174   9.328 -14.712 -0.24 -0.01    +0.066    30.755
ATOM     11  C   UNL d   1       2.418   9.836 -15.104 -0.24 +0.00    -0.021    30.755
ATOM     12  C   UNL d   1       3.155   8.761 -15.564 -0.24 -0.00    +0.000    30.755
ATOM     13  C   UNL d   1       2.296   7.634 -15.435 -0.18 -0.02    +0.070    30.755
ATOM     14  C   UNL d   1       2.892  11.282 -15.018 -0.18 -0.00    +0.052    30.755
ATOM     15  C   UNL d   1       1.755   5.217 -15.674 -0.07 -0.01    +0.066    30.755
ATOM     16  C   UNL d   1       2.083   3.959 -16.179 -0.14 +0.00    -0.021    30.755
ATOM     17  C   UNL d   1       1.019   3.116 -15.858 -0.10 -0.00    +0.000    30.755
ATOM     18  C   UNL d   1       0.111   3.933 -15.171 -0.07 -0.00    +0.070    30.755
ATOM     19  C   UNL d   1       3.343   3.689 -16.962 -0.14 -0.00    +0.052    30.755
ATOM     20  C   UNL d   1      -2.088   4.246 -13.960 -0.12 +0.00    +0.066    30.755
ATOM     21  C   UNL d   1      -3.273   3.759 -13.415 -0.08 -0.00    -0.025    30.755
ATOM     22  C   UNL d   1      -3.892   4.828 -12.809 -0.09 -0.00    -0.021    30.755
ATOM     23  C   UNL d   1      -3.067   5.937 -13.023 -0.11 +0.00    +0.066    30.755
ATOM     24  C   UNL d   1      -3.790   2.344 -13.474 -0.05 +0.00    +0.051    30.755
ATOM     25  N   UNL d   1      -1.442   8.381 -13.542 -0.12 +0.01    -0.248    30.755
ATOM     26  N   UNL d   1       1.092   7.989 -14.921 -0.18 +0.04    -0.248    30.755
ATOM     27  N   UNL d   1       0.539   5.221 -15.134 -0.11 +0.01    -0.248    30.755
ATOM     28  N   UNL d   1      -1.994   5.587 -13.762 -0.10 +0.00    -0.248    30.755
ATOM     29 FE   UNL d   1      -0.461   6.777 -14.338 -0.05 -0.00    +0.000    30.755
ATOM     30  O   UNL d   1      -1.044   7.750 -15.405 -0.11 -0.00    +0.000    30.755
ATOM     31  O   UNL d   1      -1.122   6.195 -15.641 -0.10 -0.00    +0.000    30.755
ATOM     32  C   UNL d   1      -4.253  10.160 -11.880 -0.09 -0.00    +0.052    30.755
ATOM     33  C   UNL d   1      -5.349  10.443 -12.903 -0.01 -0.00    +0.115    30.755
ATOM     34  C   UNL d   1      -5.951   9.179 -13.465 -0.00 +0.00    +0.139    30.755
ATOM     35  O   UNL d   1      -6.095   9.063 -14.671 +0.01 -0.00    -0.650    30.755
ATOM     36  O   UNL d   1      -6.362   8.177 -12.660 +0.04 -0.06    -0.776    30.755
ATOM     37  H   UNL d   1      -6.054   8.094 -11.750 +0.03 +0.03    +0.167    30.755
ATOM     38  C   UNL d   1      -5.232   4.793 -12.121 -0.06 +0.01    +0.052    30.755
ATOM     39  C   UNL d   1      -5.118   4.423 -10.644 -0.17 +0.03    +0.115    30.755
ATOM     40  C   UNL d   1      -5.243   5.622  -9.737 -0.19 +0.09    +0.139    30.755
ATOM     41  O   UNL d   1      -4.692   5.619  -8.648 -0.34 -0.52    -0.650    30.755
ATOM     42  O   UNL d   1      -5.913   6.723 -10.129 -0.48 -0.60    -0.776    30.755
ATOM     43  H   UNL d   1      -6.295   6.794 -11.012 +0.03 +0.07    +0.167    30.755
ATOM     44  C   UNL d   1       4.573   8.917 -16.072 -0.24 -0.00    +0.004    30.755
ATOM     45  C   UNL d   1       5.553   8.014 -16.057 -0.28 -0.00    +0.012    30.755
ATOM     46  C   UNL d   1       0.772   1.667 -16.186 -0.08 +0.00    +0.004    30.755
ATOM     47  C   UNL d   1       0.764   0.619 -15.353 -0.09 +0.00    +0.012    30.755
TER
ENDMDL
MODEL       41
USER    Run = 41
USER    Cluster Rank = 52
USER    Number of conformations in this cluster = 1
USER  
USER    RMSD from reference structure       = 31.413 A
USER  
USER    Estimated Free Energy of Binding    =   -4.08 kcal/mol  [=(1)+(2)+(3)-(4)]
USER    Estimated Inhibition Constant, Ki   =    1.03 mM (millimolar)  [Temperature = 298.15 K]
USER    
USER    (1) Final Intermolecular Energy     =   -7.06 kcal/mol
USER        vdW + Hbond + desolv Energy     =   -3.18 kcal/mol
USER        Electrostatic Energy            =   -3.88 kcal/mol
USER    (2) Final Total Internal Energy     =   -2.00 kcal/mol
USER    (3) Torsional Free Energy           =   +2.98 kcal/mol
USER    (4) Unbound System's Energy  [=(2)] =   -2.00 kcal/mol
USER    
USER    
USER  
USER    DPF = D:/Protein_go_brrr/autodock/final/mut_Y35F/heme_O2/dock.dpf
USER    NEWDPF move	heme_O2_opt.pdbqt
USER    NEWDPF about	8.287000 34.468000 -0.670000
USER    NEWDPF tran0	-14.815155 10.723457 10.969805
USER    NEWDPF axisangle0	-0.812668 -0.389714 -0.433235 174.933382
USER    NEWDPF quaternion0	-0.811874 -0.389333 -0.432812 0.044200
USER    NEWDPF dihe0	78.23 -150.40 -14.61 -103.39 -132.09 94.09 -33.82 94.09 -180.00 180.00 
USER  
USER                              x       y       z    vdW   Elec        q     RMS 
ATOM      1  C   UNL d   1     -15.650   8.840  10.463 -0.01 +0.07    +0.064    31.413
ATOM      2  C   UNL d   1     -14.158  12.501   7.830 -0.04 +0.02    +0.064    31.413
ATOM      3  C   UNL d   1     -13.020  14.995  11.777 -0.07 -0.01    +0.064    31.413
ATOM      4  C   UNL d   1     -14.106  11.051  14.484 -0.05 +0.03    +0.064    31.413
ATOM      5  C   UNL d   1     -15.335   9.632   9.425 -0.04 +0.07    +0.066    31.413
ATOM      6  C   UNL d   1     -15.537   9.284   8.086 -0.03 -0.01    -0.021    31.413
ATOM      7  C   UNL d   1     -15.065  10.325   7.322 -0.02 -0.01    -0.025    31.413
ATOM      8  C   UNL d   1     -14.633  11.301   8.216 -0.04 +0.03    +0.066    31.413
ATOM      9  C   UNL d   1     -15.019  10.337   5.809 -0.01 +0.01    +0.051    31.413
ATOM     10  C   UNL d   1     -13.711  13.573   8.721 -0.06 +0.01    +0.066    31.413
ATOM     11  C   UNL d   1     -13.382  14.857   8.275 -0.11 +0.00    -0.021    31.413
ATOM     12  C   UNL d   1     -13.068  15.597   9.400 -0.12 -0.00    +0.000    31.413
ATOM     13  C   UNL d   1     -13.216  14.698  10.493 -0.07 -0.01    +0.070    31.413
ATOM     14  C   UNL d   1     -13.392  15.366   6.838 -0.14 -0.01    +0.052    31.413
ATOM     15  C   UNL d   1     -13.124  14.106  12.908 -0.05 +0.00    +0.066    31.413
ATOM     16  C   UNL d   1     -12.747  14.435  14.210 -0.03 -0.00    -0.021    31.413
ATOM     17  C   UNL d   1     -13.047  13.325  15.000 -0.03 +0.00    +0.000    31.413
ATOM     18  C   UNL d   1     -13.593  12.390  14.109 -0.05 +0.02    +0.070    31.413
ATOM     19  C   UNL d   1     -12.091  15.744  14.571 -0.02 -0.01    +0.052    31.413
ATOM     20  C   UNL d   1     -14.596  10.114  13.649 -0.07 +0.05    +0.066    31.413
ATOM     21  C   UNL d   1     -15.080   8.876  14.064 -0.05 -0.02    -0.025    31.413
ATOM     22  C   UNL d   1     -15.550   8.244  12.934 -0.06 -0.02    -0.021    31.413
ATOM     23  C   UNL d   1     -15.316   9.115  11.866 -0.02 +0.08    +0.066    31.413
ATOM     24  C   UNL d   1     -15.092   8.324  15.465 -0.02 +0.02    +0.051    31.413
ATOM     25  N   UNL d   1     -14.739  10.846   9.510 -0.05 -0.22    -0.248    31.413
ATOM     26  N   UNL d   1     -13.602  13.467  10.070 -0.03 -0.05    -0.248    31.413
ATOM     27  N   UNL d   1     -13.563  12.852  12.833 -0.05 -0.08    -0.248    31.413
ATOM     28  N   UNL d   1     -14.696  10.232  12.299 -0.06 -0.29    -0.248    31.413
ATOM     29 FE   UNL d   1     -14.152  11.839  11.195 -0.02 +0.00    +0.000    31.413
ATOM     30  O   UNL d   1     -12.970  11.370  10.297 -0.15 +0.00    +0.000    31.413
ATOM     31  O   UNL d   1     -12.850  11.265  11.865 -0.60 +0.00    +0.000    31.413
ATOM     32  C   UNL d   1     -16.026   7.968   7.538 -0.02 +0.03    +0.052    31.413
ATOM     33  C   UNL d   1     -14.889   7.046   7.108 -0.06 +0.08    +0.115    31.413
ATOM     34  C   UNL d   1     -15.189   5.595   7.388 -0.11 +0.14    +0.139    31.413
ATOM     35  O   UNL d   1     -15.950   4.983   6.656 -0.02 -0.44    -0.650    31.413
ATOM     36  O   UNL d   1     -14.654   4.959   8.451 -0.09 -1.69    -0.776    31.413
ATOM     37  H   UNL d   1     -15.004   5.071   9.343 +0.03 +0.30    +0.167    31.413
ATOM     38  C   UNL d   1     -16.129   6.854  12.883 -0.05 +0.03    +0.052    31.413
ATOM     39  C   UNL d   1     -15.052   5.772  12.921 -0.11 +0.09    +0.115    31.413
ATOM     40  C   UNL d   1     -14.524   5.436  11.549 -0.18 +0.18    +0.139    31.413
ATOM     41  O   UNL d   1     -14.607   4.293  11.130 -0.25 -1.11    -0.650    31.413
ATOM     42  O   UNL d   1     -14.005   6.389  10.750 +0.16 -1.46    -0.776    31.413
ATOM     43  H   UNL d   1     -14.086   6.343   9.790 +0.03 +0.30    +0.167    31.413
ATOM     44  C   UNL d   1     -12.665  17.054   9.318 -0.16 -0.00    +0.004    31.413
ATOM     45  C   UNL d   1     -12.674  17.963  10.293 -0.13 -0.01    +0.012    31.413
ATOM     46  C   UNL d   1     -12.814  13.061  16.464 -0.01 +0.00    +0.004    31.413
ATOM     47  C   UNL d   1     -11.953  12.203  17.024 -0.02 +0.00    +0.012    31.413
TER
ENDMDL
MODEL       45
USER    Run = 45
USER    Cluster Rank = 53
USER    Number of conformations in this cluster = 1
USER  
USER    RMSD from reference structure       = 37.568 A
USER  
USER    Estimated Free Energy of Binding    =   -4.01 kcal/mol  [=(1)+(2)+(3)-(4)]
USER    Estimated Inhibition Constant, Ki   =    1.14 mM (millimolar)  [Temperature = 298.15 K]
USER    
USER    (1) Final Intermolecular Energy     =   -7.00 kcal/mol
USER        vdW + Hbond + desolv Energy     =   -4.84 kcal/mol
USER        Electrostatic Energy            =   -2.16 kcal/mol
USER    (2) Final Total Internal Energy     =   -2.23 kcal/mol
USER    (3) Torsional Free Energy           =   +2.98 kcal/mol
USER    (4) Unbound System's Energy  [=(2)] =   -2.23 kcal/mol
USER    
USER    
USER  
USER    DPF = D:/Protein_go_brrr/autodock/final/mut_Y35F/heme_O2/dock.dpf
USER    NEWDPF move	heme_O2_opt.pdbqt
USER    NEWDPF about	8.287000 34.468000 -0.670000
USER    NEWDPF tran0	-17.266799 3.408929 5.880626
USER    NEWDPF axisangle0	-0.220379 0.973792 -0.056233 -174.852139
USER    NEWDPF quaternion0	-0.220157 0.972810 -0.056177 -0.044908
USER    NEWDPF dihe0	27.91 172.29 -45.27 122.47 48.43 160.87 -1.07 67.25 -15.60 138.21 
USER  
USER                              x       y       z    vdW   Elec        q     RMS 
ATOM      1  C   UNL d   1     -15.930   4.831   6.712 -0.13 +0.05    +0.064    37.568
ATOM      2  C   UNL d   1     -15.417   1.544   3.322 -0.22 +0.02    +0.064    37.568
ATOM      3  C   UNL d   1     -19.966   0.106   3.898 -0.11 +0.01    +0.064    37.568
ATOM      4  C   UNL d   1     -20.648   3.800   7.053 -0.07 +0.01    +0.064    37.568
ATOM      5  C   UNL d   1     -15.420   4.056   5.741 -0.10 +0.04    +0.066    37.568
ATOM      6  C   UNL d   1     -14.101   4.138   5.286 -0.19 -0.01    -0.021    37.568
ATOM      7  C   UNL d   1     -13.963   3.216   4.275 -0.23 -0.01    -0.025    37.568
ATOM      8  C   UNL d   1     -15.188   2.563   4.173 -0.16 +0.02    +0.066    37.568
ATOM      9  C   UNL d   1     -12.712   3.020   3.447 -0.38 +0.02    +0.051    37.568
ATOM     10  C   UNL d   1     -16.673   0.806   3.185 -0.22 +0.02    +0.066    37.568
ATOM     11  C   UNL d   1     -16.806  -0.348   2.405 -0.30 -0.01    -0.021    37.568
ATOM     12  C   UNL d   1     -18.106  -0.788   2.572 -0.24 +0.00    +0.000    37.568
ATOM     13  C   UNL d   1     -18.709   0.150   3.456 -0.06 +0.01    +0.070    37.568
ATOM     14  C   UNL d   1     -15.732  -1.017   1.556 -0.14 +0.02    +0.052    37.568
ATOM     15  C   UNL d   1     -20.623   1.054   4.765 -0.09 +0.01    +0.066    37.568
ATOM     16  C   UNL d   1     -21.986   1.042   5.060 -0.08 -0.00    -0.021    37.568
ATOM     17  C   UNL d   1     -22.204   2.087   5.957 -0.06 +0.00    +0.000    37.568
ATOM     18  C   UNL d   1     -20.941   2.665   6.146 -0.08 +0.01    +0.070    37.568
ATOM     19  C   UNL d   1     -22.957   0.079   4.424 -0.04 +0.00    +0.052    37.568
ATOM     20  C   UNL d   1     -19.457   4.406   7.225 -0.07 +0.02    +0.066    37.568
ATOM     21  C   UNL d   1     -19.238   5.461   8.107 -0.03 -0.01    -0.025    37.568
ATOM     22  C   UNL d   1     -17.894   5.749   8.043 -0.03 -0.01    -0.021    37.568
ATOM     23  C   UNL d   1     -17.343   4.869   7.107 -0.08 +0.03    +0.066    37.568
ATOM     24  C   UNL d   1     -20.261   6.159   8.965 -0.01 +0.01    +0.051    37.568
ATOM     25  N   UNL d   1     -16.104   3.125   5.032 -0.11 -0.08    -0.248    37.568
ATOM     26  N   UNL d   1     -17.831   1.119   3.820 -0.11 -0.05    -0.248    37.568
ATOM     27  N   UNL d   1     -20.008   2.073   5.357 -0.05 -0.03    -0.248    37.568
ATOM     28  N   UNL d   1     -18.305   4.084   6.579 -0.07 -0.08    -0.248    37.568
ATOM     29 FE   UNL d   1     -18.073   2.612   5.210 -0.04 +0.00    +0.000    37.568
ATOM     30  O   UNL d   1     -17.727   3.318   3.866 -0.08 +0.00    +0.000    37.568
ATOM     31  O   UNL d   1     -19.074   3.664   4.606 -0.07 +0.00    +0.000    37.568
ATOM     32  C   UNL d   1     -13.046   5.136   5.688 -0.21 +0.05    +0.052    37.568
ATOM     33  C   UNL d   1     -12.585   4.961   7.132 -0.12 +0.19    +0.115    37.568
ATOM     34  C   UNL d   1     -11.474   5.913   7.500 -0.32 +0.17    +0.139    37.568
ATOM     35  O   UNL d   1     -10.324   5.507   7.551 -0.08 -0.61    -0.650    37.568
ATOM     36  O   UNL d   1     -11.725   7.204   7.803 +0.13 -0.94    -0.776    37.568
ATOM     37  H   UNL d   1     -12.565   7.485   8.183 +0.06 +0.27    +0.167    37.568
ATOM     38  C   UNL d   1     -17.196   6.854   8.794 -0.02 +0.03    +0.052    37.568
ATOM     39  C   UNL d   1     -16.528   7.860   7.861 -0.01 +0.06    +0.115    37.568
ATOM     40  C   UNL d   1     -15.024   7.844   7.976 -0.06 +0.12    +0.139    37.568
ATOM     41  O   UNL d   1     -14.498   7.996   9.067 -0.10 -1.06    -0.650    37.568
ATOM     42  O   UNL d   1     -14.246   7.611   6.902 +0.06 -0.57    -0.776    37.568
ATOM     43  H   UNL d   1     -13.284   7.668   6.953 +0.05 +0.14    +0.167    37.568
ATOM     44  C   UNL d   1     -18.630  -2.031   1.882 -0.27 +0.00    +0.004    37.568
ATOM     45  C   UNL d   1     -19.289  -3.052   2.426 -0.28 +0.00    +0.012    37.568
ATOM     46  C   UNL d   1     -23.472   2.604   6.583 -0.02 +0.00    +0.004    37.568
ATOM     47  C   UNL d   1     -23.815   2.608   7.878 -0.01 +0.00    +0.012    37.568
TER
ENDMDL
MODEL       36
USER    Run = 36
USER    Cluster Rank = 54
USER    Number of conformations in this cluster = 1
USER  
USER    RMSD from reference structure       = 18.632 A
USER  
USER    Estimated Free Energy of Binding    =   -4.00 kcal/mol  [=(1)+(2)+(3)-(4)]
USER    Estimated Inhibition Constant, Ki   =    1.17 mM (millimolar)  [Temperature = 298.15 K]
USER    
USER    (1) Final Intermolecular Energy     =   -6.99 kcal/mol
USER        vdW + Hbond + desolv Energy     =   -5.15 kcal/mol
USER        Electrostatic Energy            =   -1.83 kcal/mol
USER    (2) Final Total Internal Energy     =   -2.51 kcal/mol
USER    (3) Torsional Free Energy           =   +2.98 kcal/mol
USER    (4) Unbound System's Energy  [=(2)] =   -2.51 kcal/mol
USER    
USER    
USER  
USER    DPF = D:/Protein_go_brrr/autodock/final/mut_Y35F/heme_O2/dock.dpf
USER    NEWDPF move	heme_O2_opt.pdbqt
USER    NEWDPF about	8.287000 34.468000 -0.670000
USER    NEWDPF tran0	12.429522 15.657793 8.842997
USER    NEWDPF axisangle0	0.709274 -0.412420 -0.571699 -162.048076
USER    NEWDPF quaternion0	0.700588 -0.407369 -0.564698 -0.156020
USER    NEWDPF dihe0	-151.23 -139.67 63.85 -34.68 15.33 95.42 -87.84 95.49 173.51 -169.24 
USER  
USER                              x       y       z    vdW   Elec        q     RMS 
ATOM      1  C   UNL d   1      12.870  16.489  10.744 -0.04 +0.01    +0.064    18.632
ATOM      2  C   UNL d   1      10.577  18.195   6.951 -0.13 -0.01    +0.064    18.632
ATOM      3  C   UNL d   1      11.372  14.124   4.524 -0.16 -0.01    +0.064    18.632
ATOM      4  C   UNL d   1      13.316  12.178   8.586 -0.05 +0.01    +0.064    18.632
ATOM      5  C   UNL d   1      12.180  17.284   9.911 -0.07 +0.00    +0.066    18.632
ATOM      6  C   UNL d   1      11.769  18.582  10.229 -0.06 -0.00    -0.021    18.632
ATOM      7  C   UNL d   1      11.068  19.061   9.148 -0.09 +0.00    -0.025    18.632
ATOM      8  C   UNL d   1      11.111  18.061   8.180 -0.12 -0.01    +0.066    18.632
ATOM      9  C   UNL d   1      10.377  20.406   9.091 -0.08 -0.00    +0.051    18.632
ATOM     10  C   UNL d   1      10.611  17.191   5.887 -0.16 -0.02    +0.066    18.632
ATOM     11  C   UNL d   1      10.187  17.442   4.578 -0.20 +0.00    -0.021    18.632
ATOM     12  C   UNL d   1      10.424  16.286   3.858 -0.21 -0.00    +0.000    18.632
ATOM     13  C   UNL d   1      10.982  15.370   4.793 -0.17 -0.01    +0.070    18.632
ATOM     14  C   UNL d   1       9.604  18.740   4.029 -0.18 -0.01    +0.052    18.632
ATOM     15  C   UNL d   1      11.908  13.155   5.449 -0.04 -0.00    +0.066    18.632
ATOM     16  C   UNL d   1      12.144  11.815   5.142 -0.13 -0.00    -0.021    18.632
ATOM     17  C   UNL d   1      12.698  11.240   6.285 -0.09 +0.00    +0.000    18.632
ATOM     18  C   UNL d   1      12.760  12.286   7.216 -0.07 +0.01    +0.070    18.632
ATOM     19  C   UNL d   1      11.773  11.197   3.817 -0.27 -0.01    +0.052    18.632
ATOM     20  C   UNL d   1      13.352  13.150   9.519 -0.04 +0.01    +0.066    18.632
ATOM     21  C   UNL d   1      13.905  12.994  10.787 -0.02 -0.00    -0.025    18.632
ATOM     22  C   UNL d   1      13.811  14.220  11.406 -0.02 -0.00    -0.021    18.632
ATOM     23  C   UNL d   1      13.186  15.077  10.496 -0.04 +0.01    +0.066    18.632
ATOM     24  C   UNL d   1      14.490  11.738  11.379 -0.01 +0.01    +0.051    18.632
ATOM     25  N   UNL d   1      11.740  16.942   8.676 -0.07 +0.00    -0.248    18.632
ATOM     26  N   UNL d   1      11.087  15.927   6.026 -0.13 +0.04    -0.248    18.632
ATOM     27  N   UNL d   1      12.208  13.421   6.717 -0.04 -0.01    -0.248    18.632
ATOM     28  N   UNL d   1      12.868  14.411   9.367 -0.03 -0.03    -0.248    18.632
ATOM     29 FE   UNL d   1      11.984  15.161   7.707 -0.03 +0.00    +0.000    18.632
ATOM     30  O   UNL d   1      10.509  15.465   8.100 -0.33 -0.00    +0.000    18.632
ATOM     31  O   UNL d   1      11.070  14.000   8.245 -0.15 +0.00    +0.000    18.632
ATOM     32  C   UNL d   1      11.909  19.297  11.548 -0.03 +0.00    +0.052    18.632
ATOM     33  C   UNL d   1      10.606  19.339  12.340 -0.06 +0.01    +0.115    18.632
ATOM     34  C   UNL d   1      10.451  18.150  13.255 -0.11 +0.05    +0.139    18.632
ATOM     35  O   UNL d   1       9.378  17.570  13.315 -0.00 -0.39    -0.650    18.632
ATOM     36  O   UNL d   1      11.466  17.726  14.036 +0.01 -0.30    -0.776    18.632
ATOM     37  H   UNL d   1      11.559  16.802  14.296 +0.01 +0.11    +0.167    18.632
ATOM     38  C   UNL d   1      14.242  14.526  12.817 -0.01 +0.01    +0.052    18.632
ATOM     39  C   UNL d   1      13.378  13.815  13.857 -0.03 +0.05    +0.115    18.632
ATOM     40  C   UNL d   1      12.132  14.592  14.199 -0.02 +0.14    +0.139    18.632
ATOM     41  O   UNL d   1      11.941  14.955  15.348 -0.30 -0.66    -0.650    18.632
ATOM     42  O   UNL d   1      11.245  14.939  13.247 -0.44 -1.02    -0.776    18.632
ATOM     43  H   UNL d   1      10.848  15.818  13.222 +0.01 +0.19    +0.167    18.632
ATOM     44  C   UNL d   1      10.099  16.175   2.383 -0.29 -0.00    +0.004    18.632
ATOM     45  C   UNL d   1       9.273  15.314   1.789 -0.45 -0.00    +0.012    18.632
ATOM     46  C   UNL d   1      13.104   9.820   6.580 -0.08 +0.00    +0.004    18.632
ATOM     47  C   UNL d   1      12.459   8.691   6.260 -0.12 +0.00    +0.012    18.632
TER
ENDMDL
MODEL       68
USER    Run = 68
USER    Cluster Rank = 55
USER    Number of conformations in this cluster = 1
USER  
USER    RMSD from reference structure       = 47.051 A
USER  
USER    Estimated Free Energy of Binding    =   -3.94 kcal/mol  [=(1)+(2)+(3)-(4)]
USER    Estimated Inhibition Constant, Ki   =    1.29 mM (millimolar)  [Temperature = 298.15 K]
USER    
USER    (1) Final Intermolecular Energy     =   -6.92 kcal/mol
USER        vdW + Hbond + desolv Energy     =   -6.96 kcal/mol
USER        Electrostatic Energy            =   +0.03 kcal/mol
USER    (2) Final Total Internal Energy     =   -1.83 kcal/mol
USER    (3) Torsional Free Energy           =   +2.98 kcal/mol
USER    (4) Unbound System's Energy  [=(2)] =   -1.83 kcal/mol
USER    
USER    
USER  
USER    DPF = D:/Protein_go_brrr/autodock/final/mut_Y35F/heme_O2/dock.dpf
USER    NEWDPF move	heme_O2_opt.pdbqt
USER    NEWDPF about	8.287000 34.468000 -0.670000
USER    NEWDPF tran0	-4.360959 -10.237454 -13.376691
USER    NEWDPF axisangle0	-0.636850 0.178682 0.749997 80.588451
USER    NEWDPF quaternion0	-0.411859 0.115556 0.485033 0.762734
USER    NEWDPF dihe0	68.96 52.65 -65.72 -134.20 -167.18 141.78 -127.01 156.42 -34.28 5.76 
USER  
USER                              x       y       z    vdW   Elec        q     RMS 
ATOM      1  C   UNL d   1      -4.452  -8.148 -13.021 -0.11 -0.00    +0.064    47.051
ATOM      2  C   UNL d   1      -7.754 -11.562 -12.952 -0.17 -0.01    +0.064    47.051
ATOM      3  C   UNL d   1      -4.493 -14.869 -14.184 -0.24 +0.01    +0.064    47.051
ATOM      4  C   UNL d   1      -0.997 -11.450 -13.792 -0.24 -0.00    +0.064    47.051
ATOM      5  C   UNL d   1      -5.616  -8.807 -12.900 -0.13 -0.00    +0.066    47.051
ATOM      6  C   UNL d   1      -6.831  -8.197 -12.574 -0.17 +0.00    -0.021    47.051
ATOM      7  C   UNL d   1      -7.779  -9.191 -12.511 -0.19 +0.00    -0.025    47.051
ATOM      8  C   UNL d   1      -7.128 -10.374 -12.848 -0.15 -0.01    +0.066    47.051
ATOM      9  C   UNL d   1      -9.225  -8.984 -12.115 -0.23 -0.01    +0.051    47.051
ATOM     10  C   UNL d   1      -7.129 -12.832 -13.323 -0.17 -0.00    +0.066    47.051
ATOM     11  C   UNL d   1      -7.853 -14.002 -13.576 -0.18 -0.00    -0.021    47.051
ATOM     12  C   UNL d   1      -6.932 -14.962 -13.950 -0.22 +0.00    +0.000    47.051
ATOM     13  C   UNL d   1      -5.668 -14.313 -13.891 -0.21 +0.00    +0.070    47.051
ATOM     14  C   UNL d   1      -9.364 -14.188 -13.490 -0.17 +0.00    +0.052    47.051
ATOM     15  C   UNL d   1      -3.189 -14.257 -14.103 -0.17 +0.01    +0.066    47.051
ATOM     16  C   UNL d   1      -1.983 -14.939 -14.265 -0.15 -0.00    -0.021    47.051
ATOM     17  C   UNL d   1      -0.972 -13.985 -14.156 -0.17 +0.00    +0.000    47.051
ATOM     18  C   UNL d   1      -1.646 -12.775 -13.936 -0.18 -0.00    +0.070    47.051
ATOM     19  C   UNL d   1      -1.903 -16.434 -14.451 -0.20 +0.01    +0.052    47.051
ATOM     20  C   UNL d   1      -1.609 -10.278 -13.537 -0.23 -0.00    +0.066    47.051
ATOM     21  C   UNL d   1      -0.946  -9.058 -13.429 -0.27 -0.00    -0.025    47.051
ATOM     22  C   UNL d   1      -1.918  -8.102 -13.237 -0.23 -0.00    -0.021    47.051
ATOM     23  C   UNL d   1      -3.141  -8.779 -13.216 -0.12 -0.00    +0.066    47.051
ATOM     24  C   UNL d   1       0.539  -8.819 -13.503 -0.10 +0.01    +0.051    47.051
ATOM     25  N   UNL d   1      -5.782 -10.147 -13.023 -0.07 +0.02    -0.248    47.051
ATOM     26  N   UNL d   1      -5.796 -13.018 -13.504 -0.12 +0.01    -0.248    47.051
ATOM     27  N   UNL d   1      -2.985 -12.971 -13.832 -0.12 -0.00    -0.248    47.051
ATOM     28  N   UNL d   1      -2.945 -10.106 -13.353 -0.13 +0.02    -0.248    47.051
ATOM     29 FE   UNL d   1      -4.358 -11.554 -13.428 -0.04 -0.00    +0.000    47.051
ATOM     30  O   UNL d   1      -4.952 -11.657 -11.993 -0.44 -0.00    +0.000    47.051
ATOM     31  O   UNL d   1      -3.409 -11.883 -12.218 -0.43 -0.00    +0.000    47.051
ATOM     32  C   UNL d   1      -7.069  -6.757 -12.200 -0.07 -0.01    +0.052    47.051
ATOM     33  C   UNL d   1      -6.432  -5.777 -13.180 -0.10 -0.00    +0.115    47.051
ATOM     34  C   UNL d   1      -6.792  -6.081 -14.614 -0.03 -0.00    +0.139    47.051
ATOM     35  O   UNL d   1      -7.937  -6.396 -14.894 +0.01 +0.01    -0.650    47.051
ATOM     36  O   UNL d   1      -5.867  -6.041 -15.595 +0.02 +0.00    -0.776    47.051
ATOM     37  H   UNL d   1      -5.157  -6.691 -15.655 +0.01 -0.00    +0.167    47.051
ATOM     38  C   UNL d   1      -1.672  -6.631 -13.021 -0.27 +0.00    +0.052    47.051
ATOM     39  C   UNL d   1      -2.066  -5.791 -14.234 -0.08 +0.00    +0.115    47.051
ATOM     40  C   UNL d   1      -2.033  -6.583 -15.518 -0.02 +0.00    +0.139    47.051
ATOM     41  O   UNL d   1      -0.961  -6.883 -16.018 +0.04 -0.03    -0.650    47.051
ATOM     42  O   UNL d   1      -3.170  -7.011 -16.100 +0.03 -0.01    -0.776    47.051
ATOM     43  H   UNL d   1      -3.880  -6.400 -16.331 +0.01 +0.00    +0.167    47.051
ATOM     44  C   UNL d   1      -7.345 -16.373 -14.314 -0.17 +0.00    +0.004    47.051
ATOM     45  C   UNL d   1      -7.325 -16.948 -15.516 -0.15 +0.00    +0.012    47.051
ATOM     46  C   UNL d   1       0.526 -14.125 -14.184 -0.17 -0.00    +0.004    47.051
ATOM     47  C   UNL d   1       1.433 -13.476 -13.442 -0.27 -0.00    +0.012    47.051
TER
ENDMDL
MODEL       42
USER    Run = 42
USER    Cluster Rank = 56
USER    Number of conformations in this cluster = 1
USER  
USER    RMSD from reference structure       = 24.945 A
USER  
USER    Estimated Free Energy of Binding    =   -3.93 kcal/mol  [=(1)+(2)+(3)-(4)]
USER    Estimated Inhibition Constant, Ki   =    1.32 mM (millimolar)  [Temperature = 298.15 K]
USER    
USER    (1) Final Intermolecular Energy     =   -6.91 kcal/mol
USER        vdW + Hbond + desolv Energy     =   -6.95 kcal/mol
USER        Electrostatic Energy            =   +0.04 kcal/mol
USER    (2) Final Total Internal Energy     =   -2.53 kcal/mol
USER    (3) Torsional Free Energy           =   +2.98 kcal/mol
USER    (4) Unbound System's Energy  [=(2)] =   -2.53 kcal/mol
USER    
USER    
USER  
USER    DPF = D:/Protein_go_brrr/autodock/final/mut_Y35F/heme_O2/dock.dpf
USER    NEWDPF move	heme_O2_opt.pdbqt
USER    NEWDPF about	8.287000 34.468000 -0.670000
USER    NEWDPF tran0	8.074722 12.729985 -13.729134
USER    NEWDPF axisangle0	-0.913347 0.128695 -0.386309 -75.530186
USER    NEWDPF quaternion0	-0.559357 0.078816 -0.236586 -0.790528
USER    NEWDPF dihe0	127.53 145.45 11.24 118.70 -53.17 -79.35 63.39 -64.40 22.77 -4.63 
USER  
USER                              x       y       z    vdW   Elec        q     RMS 
ATOM      1  C   UNL d   1       6.298  13.075 -14.835 -0.16 +0.00    +0.064    24.945
ATOM      2  C   UNL d   1       7.990  14.956 -10.816 -0.16 +0.01    +0.064    24.945
ATOM      3  C   UNL d   1      11.875  12.135 -11.023 -0.21 -0.02    +0.064    24.945
ATOM      4  C   UNL d   1      10.377  10.532 -15.410 -0.09 -0.00    +0.064    24.945
ATOM      5  C   UNL d   1       6.442  13.818 -13.726 -0.21 +0.00    +0.066    24.945
ATOM      6  C   UNL d   1       5.506  14.758 -13.287 -0.19 -0.00    -0.021    24.945
ATOM      7  C   UNL d   1       6.015  15.335 -12.147 -0.20 -0.00    -0.025    24.945
ATOM      8  C   UNL d   1       7.226  14.696 -11.894 -0.21 +0.00    +0.066    24.945
ATOM      9  C   UNL d   1       5.359  16.462 -11.380 -0.15 +0.00    +0.051    24.945
ATOM     10  C   UNL d   1       9.258  14.304 -10.486 -0.26 -0.00    +0.066    24.945
ATOM     11  C   UNL d   1       9.928  14.494  -9.273 -0.34 +0.00    -0.021    24.945
ATOM     12  C   UNL d   1      11.042  13.675  -9.306 -0.35 -0.00    +0.000    24.945
ATOM     13  C   UNL d   1      10.993  13.026 -10.571 -0.26 -0.01    +0.070    24.945
ATOM     14  C   UNL d   1       9.509  15.398  -8.119 -0.38 +0.00    +0.052    24.945
ATOM     15  C   UNL d   1      11.881  11.483 -12.310 -0.23 -0.01    +0.066    24.945
ATOM     16  C   UNL d   1      12.920  10.685 -12.787 -0.27 +0.01    -0.021    24.945
ATOM     17  C   UNL d   1      12.516  10.218 -14.038 -0.21 -0.00    +0.000    24.945
ATOM     18  C   UNL d   1      11.242  10.771 -14.231 -0.13 -0.01    +0.070    24.945
ATOM     19  C   UNL d   1      14.215  10.488 -12.040 -0.29 -0.02    +0.052    24.945
ATOM     20  C   UNL d   1       9.170  11.080 -15.647 -0.06 -0.00    +0.066    24.945
ATOM     21  C   UNL d   1       8.393  10.803 -16.769 -0.08 +0.00    -0.025    24.945
ATOM     22  C   UNL d   1       7.216  11.498 -16.608 -0.09 +0.00    -0.021    24.945
ATOM     23  C   UNL d   1       7.325  12.190 -15.399 -0.12 -0.00    +0.066    24.945
ATOM     24  C   UNL d   1       8.758   9.923 -17.936 -0.04 -0.00    +0.051    24.945
ATOM     25  N   UNL d   1       7.519  13.808 -12.903 -0.19 -0.01    -0.248    24.945
ATOM     26  N   UNL d   1       9.907  13.418 -11.284 -0.18 +0.02    -0.248    24.945
ATOM     27  N   UNL d   1      10.905  11.596 -13.207 -0.02 +0.02    -0.248    24.945
ATOM     28  N   UNL d   1       8.533  11.969 -14.840 -0.05 -0.00    -0.248    24.945
ATOM     29 FE   UNL d   1       9.217  12.687 -13.075 -0.05 +0.00    +0.000    24.945
ATOM     30  O   UNL d   1       9.447  14.212 -13.286 -0.13 -0.00    +0.000    24.945
ATOM     31  O   UNL d   1      10.205  13.175 -14.198 -0.11 -0.00    +0.000    24.945
ATOM     32  C   UNL d   1       4.244  15.200 -13.983 -0.12 +0.00    +0.052    24.945
ATOM     33  C   UNL d   1       2.982  14.653 -13.325 -0.16 +0.00    +0.115    24.945
ATOM     34  C   UNL d   1       2.181  13.776 -14.255 -0.13 -0.00    +0.139    24.945
ATOM     35  O   UNL d   1       1.428  12.934 -13.792 +0.05 +0.02    -0.650    24.945
ATOM     36  O   UNL d   1       2.300  13.879 -15.595 +0.03 +0.02    -0.776    24.945
ATOM     37  H   UNL d   1       2.479  13.114 -16.153 +0.02 -0.01    +0.167    24.945
ATOM     38  C   UNL d   1       6.080  11.540 -17.598 -0.04 -0.00    +0.052    24.945
ATOM     39  C   UNL d   1       4.970  10.549 -17.253 -0.06 -0.01    +0.115    24.945
ATOM     40  C   UNL d   1       3.678  11.235 -16.886 -0.06 -0.01    +0.139    24.945
ATOM     41  O   UNL d   1       3.079  11.888 -17.725 +0.01 +0.03    -0.650    24.945
ATOM     42  O   UNL d   1       3.142  11.098 -15.658 +0.05 +0.04    -0.776    24.945
ATOM     43  H   UNL d   1       2.632  11.807 -15.248 +0.04 -0.01    +0.167    24.945
ATOM     44  C   UNL d   1      12.019  13.600  -8.151 -0.41 -0.00    +0.004    24.945
ATOM     45  C   UNL d   1      13.185  12.956  -8.106 -0.33 -0.00    +0.012    24.945
ATOM     46  C   UNL d   1      13.232   9.369 -15.054 -0.20 -0.00    +0.004    24.945
ATOM     47  C   UNL d   1      12.950   8.116 -15.434 -0.23 -0.00    +0.012    24.945
TER
ENDMDL
MODEL       52
USER    Run = 52
USER    Cluster Rank = 57
USER    Number of conformations in this cluster = 1
USER  
USER    RMSD from reference structure       = 19.813 A
USER  
USER    Estimated Free Energy of Binding    =   -3.77 kcal/mol  [=(1)+(2)+(3)-(4)]
USER    Estimated Inhibition Constant, Ki   =    1.73 mM (millimolar)  [Temperature = 298.15 K]
USER    
USER    (1) Final Intermolecular Energy     =   -6.75 kcal/mol
USER        vdW + Hbond + desolv Energy     =   -6.63 kcal/mol
USER        Electrostatic Energy            =   -0.12 kcal/mol
USER    (2) Final Total Internal Energy     =   -2.26 kcal/mol
USER    (3) Torsional Free Energy           =   +2.98 kcal/mol
USER    (4) Unbound System's Energy  [=(2)] =   -2.26 kcal/mol
USER    
USER    
USER  
USER    DPF = D:/Protein_go_brrr/autodock/final/mut_Y35F/heme_O2/dock.dpf
USER    NEWDPF move	heme_O2_opt.pdbqt
USER    NEWDPF about	8.287000 34.468000 -0.670000
USER    NEWDPF tran0	8.839998 16.328152 -9.644779
USER    NEWDPF axisangle0	0.636621 -0.273927 0.720887 -104.496938
USER    NEWDPF quaternion0	0.503359 -0.216587 0.569986 -0.612238
USER    NEWDPF dihe0	-132.62 -2.41 -73.61 -86.80 57.46 -28.53 -69.85 -15.38 -160.45 21.30 
USER  
USER                              x       y       z    vdW   Elec        q     RMS 
ATOM      1  C   UNL d   1       7.562  16.027 -11.311 -0.14 +0.00    +0.064    19.813
ATOM      2  C   UNL d   1      11.505  13.818  -9.852 -0.23 -0.01    +0.064    19.813
ATOM      3  C   UNL d   1      11.897  16.796  -6.101 -0.19 -0.03    +0.064    19.813
ATOM      4  C   UNL d   1       7.577  18.774  -7.324 -0.11 +0.02    +0.064    19.813
ATOM      5  C   UNL d   1       8.602  15.182 -11.219 -0.19 +0.00    +0.066    19.813
ATOM      6  C   UNL d   1       8.868  14.166 -12.141 -0.23 +0.00    -0.021    19.813
ATOM      7  C   UNL d   1       9.985  13.498 -11.697 -0.23 +0.00    -0.025    19.813
ATOM      8  C   UNL d   1      10.398  14.155 -10.541 -0.22 -0.01    +0.066    19.813
ATOM      9  C   UNL d   1      10.582  12.274 -12.357 -0.09 -0.00    +0.051    19.813
ATOM     10  C   UNL d   1      12.001  14.483  -8.646 -0.20 -0.01    +0.066    19.813
ATOM     11  C   UNL d   1      13.242  14.198  -8.065 -0.20 +0.00    -0.021    19.813
ATOM     12  C   UNL d   1      13.381  15.060  -6.992 -0.23 -0.00    +0.000    19.813
ATOM     13  C   UNL d   1      12.185  15.830  -6.972 -0.19 -0.02    +0.070    19.813
ATOM     14  C   UNL d   1      14.263  13.167  -8.530 -0.20 -0.01    +0.052    19.813
ATOM     15  C   UNL d   1      10.684  17.575  -6.025 -0.02 -0.01    +0.066    19.813
ATOM     16  C   UNL d   1      10.374  18.457  -4.990 -0.14 +0.00    -0.021    19.813
ATOM     17  C   UNL d   1       9.146  19.032  -5.317 -0.14 +0.00    +0.000    19.813
ATOM     18  C   UNL d   1       8.796  18.451  -6.544 -0.12 +0.01    +0.070    19.813
ATOM     19  C   UNL d   1      11.242  18.629  -3.769 -0.17 -0.04    +0.052    19.813
ATOM     20  C   UNL d   1       7.189  18.205  -8.482 -0.12 +0.02    +0.066    19.813
ATOM     21  C   UNL d   1       6.039  18.563  -9.180 -0.08 -0.00    -0.025    19.813
ATOM     22  C   UNL d   1       6.033  17.810 -10.333 -0.08 -0.00    -0.021    19.813
ATOM     23  C   UNL d   1       7.174  17.003 -10.286 -0.11 +0.01    +0.066    19.813
ATOM     24  C   UNL d   1       4.998  19.570  -8.767 -0.06 +0.01    +0.051    19.813
ATOM     25  N   UNL d   1       9.508  15.151 -10.211 -0.13 +0.00    -0.248    19.813
ATOM     26  N   UNL d   1      11.350  15.470  -7.979 -0.12 +0.03    -0.248    19.813
ATOM     27  N   UNL d   1       9.703  17.515  -6.921 -0.09 -0.01    -0.248    19.813
ATOM     28  N   UNL d   1       7.850  17.214  -9.138 -0.09 -0.04    -0.248    19.813
ATOM     29 FE   UNL d   1       9.587  16.350  -8.560 -0.04 +0.00    +0.000    19.813
ATOM     30  O   UNL d   1       9.249  14.864  -8.242 -0.52 +0.00    +0.000    19.813
ATOM     31  O   UNL d   1       8.508  16.018  -7.466 -0.44 +0.00    +0.000    19.813
ATOM     32  C   UNL d   1       8.030  13.748 -13.322 -0.23 +0.00    +0.052    19.813
ATOM     33  C   UNL d   1       6.811  12.924 -12.920 -0.29 +0.01    +0.115    19.813
ATOM     34  C   UNL d   1       5.522  13.694 -13.069 -0.28 +0.01    +0.139    19.813
ATOM     35  O   UNL d   1       5.067  14.299 -12.111 -0.07 -0.08    -0.650    19.813
ATOM     36  O   UNL d   1       4.842  13.709 -14.233 +0.04 -0.01    -0.776    19.813
ATOM     37  H   UNL d   1       4.514  14.527 -14.624 +0.04 -0.00    +0.167    19.813
ATOM     38  C   UNL d   1       4.954  17.822 -11.384 -0.07 +0.00    +0.052    19.813
ATOM     39  C   UNL d   1       5.496  18.164 -12.771 -0.02 +0.00    +0.115    19.813
ATOM     40  C   UNL d   1       4.534  17.796 -13.872 -0.01 -0.00    +0.139    19.813
ATOM     41  O   UNL d   1       4.053  18.672 -14.574 +0.00 +0.01    -0.650    19.813
ATOM     42  O   UNL d   1       4.233  16.509 -14.132 +0.04 +0.00    -0.776    19.813
ATOM     43  H   UNL d   1       4.617  15.788 -13.621 +0.03 +0.00    +0.167    19.813
ATOM     44  C   UNL d   1      14.614  15.056  -6.113 -0.24 -0.00    +0.004    19.813
ATOM     45  C   UNL d   1      15.636  15.910  -6.133 -0.16 -0.01    +0.012    19.813
ATOM     46  C   UNL d   1       8.280  20.007  -4.565 -0.13 +0.00    +0.004    19.813
ATOM     47  C   UNL d   1       7.263  19.741  -3.734 -0.16 +0.00    +0.012    19.813
TER
ENDMDL
MODEL       54
USER    Run = 54
USER    Cluster Rank = 58
USER    Number of conformations in this cluster = 1
USER  
USER    RMSD from reference structure       = 49.178 A
USER  
USER    Estimated Free Energy of Binding    =   -3.69 kcal/mol  [=(1)+(2)+(3)-(4)]
USER    Estimated Inhibition Constant, Ki   =    1.97 mM (millimolar)  [Temperature = 298.15 K]
USER    
USER    (1) Final Intermolecular Energy     =   -6.67 kcal/mol
USER        vdW + Hbond + desolv Energy     =   -6.71 kcal/mol
USER        Electrostatic Energy            =   +0.03 kcal/mol
USER    (2) Final Total Internal Energy     =   -2.27 kcal/mol
USER    (3) Torsional Free Energy           =   +2.98 kcal/mol
USER    (4) Unbound System's Energy  [=(2)] =   -2.27 kcal/mol
USER    
USER    
USER  
USER    DPF = D:/Protein_go_brrr/autodock/final/mut_Y35F/heme_O2/dock.dpf
USER    NEWDPF move	heme_O2_opt.pdbqt
USER    NEWDPF about	8.287000 34.468000 -0.670000
USER    NEWDPF tran0	-3.645262 -13.171137 -13.976301
USER    NEWDPF axisangle0	-0.216376 -0.944484 0.247247 -138.869787
USER    NEWDPF quaternion0	-0.202587 -0.884296 0.231490 -0.351272
USER    NEWDPF dihe0	179.20 109.34 -78.74 -108.90 45.67 -57.57 -113.84 138.94 -168.94 -163.22 
USER  
USER                              x       y       z    vdW   Elec        q     RMS 
ATOM      1  C   UNL d   1      -1.700 -13.444 -14.778 -0.10 +0.00    +0.064    49.178
ATOM      2  C   UNL d   1      -5.673 -16.032 -15.048 +0.03 +0.02    +0.064    49.178
ATOM      3  C   UNL d   1      -8.022 -12.887 -12.276 -0.35 -0.01    +0.064    49.178
ATOM      4  C   UNL d   1      -4.078  -9.971 -12.384 +0.03 -0.00    +0.064    49.178
ATOM      5  C   UNL d   1      -2.590 -14.403 -15.079 -0.11 +0.01    +0.066    49.178
ATOM      6  C   UNL d   1      -2.295 -15.528 -15.855 -0.08 -0.00    -0.021    49.178
ATOM      7  C   UNL d   1      -3.456 -16.256 -15.970 -0.12 -0.01    -0.025    49.178
ATOM      8  C   UNL d   1      -4.416 -15.581 -15.221 -0.16 +0.02    +0.066    49.178
ATOM      9  C   UNL d   1      -3.609 -17.518 -16.792 -0.00 +0.03    +0.051    49.178
ATOM     10  C   UNL d   1      -6.717 -15.381 -14.256 -0.18 +0.01    +0.066    49.178
ATOM     11  C   UNL d   1      -7.953 -15.973 -13.975 -0.18 -0.00    -0.021    49.178
ATOM     12  C   UNL d   1      -8.638 -15.089 -13.162 -0.22 +0.00    +0.000    49.178
ATOM     13  C   UNL d   1      -7.766 -13.977 -12.999 -0.24 -0.00    +0.070    49.178
ATOM     14  C   UNL d   1      -8.449 -17.337 -14.441 -0.16 +0.02    +0.052    49.178
ATOM     15  C   UNL d   1      -7.181 -11.725 -12.114 -0.27 -0.01    +0.066    49.178
ATOM     16  C   UNL d   1      -7.573 -10.547 -11.480 -0.30 +0.01    -0.021    49.178
ATOM     17  C   UNL d   1      -6.465  -9.701 -11.499 -0.35 -0.00    +0.000    49.178
ATOM     18  C   UNL d   1      -5.466 -10.436 -12.151 -0.26 -0.01    +0.070    49.178
ATOM     19  C   UNL d   1      -8.972 -10.317 -10.966 -0.42 -0.01    +0.052    49.178
ATOM     20  C   UNL d   1      -3.107 -10.633 -13.044 -0.20 -0.01    +0.066    49.178
ATOM     21  C   UNL d   1      -1.813 -10.152 -13.216 -0.18 +0.00    -0.025    49.178
ATOM     22  C   UNL d   1      -1.114 -11.140 -13.872 -0.24 +0.00    -0.021    49.178
ATOM     23  C   UNL d   1      -2.016 -12.185 -14.093 -0.17 -0.00    +0.066    49.178
ATOM     24  C   UNL d   1      -1.271  -8.815 -12.780 -0.29 -0.00    +0.051    49.178
ATOM     25  N   UNL d   1      -3.899 -14.406 -14.727 -0.11 -0.03    -0.248    49.178
ATOM     26  N   UNL d   1      -6.601 -14.161 -13.671 -0.14 -0.01    -0.248    49.178
ATOM     27  N   UNL d   1      -5.940 -11.633 -12.584 -0.14 +0.04    -0.248    49.178
ATOM     28  N   UNL d   1      -3.238 -11.854 -13.628 -0.13 +0.01    -0.248    49.178
ATOM     29 FE   UNL d   1      -4.909 -12.997 -13.648 -0.04 -0.00    +0.000    49.178
ATOM     30  O   UNL d   1      -5.355 -13.088 -15.136 -0.09 +0.00    +0.000    49.178
ATOM     31  O   UNL d   1      -5.229 -11.679 -14.444 -0.10 -0.00    +0.000    49.178
ATOM     32  C   UNL d   1      -1.010 -15.840 -16.578 -0.03 +0.01    +0.052    49.178
ATOM     33  C   UNL d   1      -0.935 -15.195 -17.958 -0.01 +0.01    +0.115    49.178
ATOM     34  C   UNL d   1      -0.930 -13.688 -17.889 -0.00 +0.01    +0.139    49.178
ATOM     35  O   UNL d   1      -1.936 -13.067 -18.194 +0.01 -0.03    -0.650    49.178
ATOM     36  O   UNL d   1       0.173 -13.004 -17.524 +0.02 -0.01    -0.776    49.178
ATOM     37  H   UNL d   1       0.188 -12.041 -17.484 +0.01 +0.00    +0.167    49.178
ATOM     38  C   UNL d   1       0.324 -11.051 -14.317 -0.23 +0.00    +0.052    49.178
ATOM     39  C   UNL d   1       0.554  -9.922 -15.319 -0.13 +0.01    +0.115    49.178
ATOM     40  C   UNL d   1      -0.541  -9.836 -16.352 -0.03 +0.00    +0.139    49.178
ATOM     41  O   UNL d   1      -1.543  -9.180 -16.119 +0.03 -0.01    -0.650    49.178
ATOM     42  O   UNL d   1      -0.412 -10.430 -17.554 +0.03 -0.01    -0.776    49.178
ATOM     43  H   UNL d   1      -0.958 -11.184 -17.806 +0.01 +0.00    +0.167    49.178
ATOM     44  C   UNL d   1     -10.027 -15.389 -12.638 -0.24 +0.00    +0.004    49.178
ATOM     45  C   UNL d   1     -10.363 -15.894 -11.452 -0.31 +0.00    +0.012    49.178
ATOM     46  C   UNL d   1      -6.296  -8.283 -11.021 -0.29 -0.00    +0.004    49.178
ATOM     47  C   UNL d   1      -6.029  -7.190 -11.748 -0.29 -0.00    +0.012    49.178
TER
ENDMDL
MODEL        5
USER    Run = 5
USER    Cluster Rank = 59
USER    Number of conformations in this cluster = 1
USER  
USER    RMSD from reference structure       = 21.531 A
USER  
USER    Estimated Free Energy of Binding    =   -3.44 kcal/mol  [=(1)+(2)+(3)-(4)]
USER    Estimated Inhibition Constant, Ki   =    3.01 mM (millimolar)  [Temperature = 298.15 K]
USER    
USER    (1) Final Intermolecular Energy     =   -6.42 kcal/mol
USER        vdW + Hbond + desolv Energy     =   -6.62 kcal/mol
USER        Electrostatic Energy            =   +0.19 kcal/mol
USER    (2) Final Total Internal Energy     =   -2.38 kcal/mol
USER    (3) Torsional Free Energy           =   +2.98 kcal/mol
USER    (4) Unbound System's Energy  [=(2)] =   -2.38 kcal/mol
USER    
USER    
USER  
USER    DPF = D:/Protein_go_brrr/autodock/final/mut_Y35F/heme_O2/dock.dpf
USER    NEWDPF move	heme_O2_opt.pdbqt
USER    NEWDPF about	8.287000 34.468000 -0.670000
USER    NEWDPF tran0	10.495417 14.709917 -9.370364
USER    NEWDPF axisangle0	-0.210657 0.973888 -0.084647 -114.048151
USER    NEWDPF quaternion0	-0.176720 0.816994 -0.071011 -0.544287
USER    NEWDPF dihe0	11.09 -129.29 -47.08 117.76 68.63 -179.68 176.92 92.29 -158.93 -179.98 
USER  
USER                              x       y       z    vdW   Elec        q     RMS 
ATOM      1  C   UNL d   1      10.282  15.892  -7.622 -0.17 -0.00    +0.064    21.531
ATOM      2  C   UNL d   1      13.843  13.215  -9.270 -0.15 -0.02    +0.064    21.531
ATOM      3  C   UNL d   1      11.240  11.951 -13.106 -0.18 -0.01    +0.064    21.531
ATOM      4  C   UNL d   1       7.746  15.079 -11.665 -0.20 +0.00    +0.064    21.531
ATOM      5  C   UNL d   1      11.463  15.268  -7.758 -0.22 -0.01    +0.066    21.531
ATOM      6  C   UNL d   1      12.506  15.355  -6.830 -0.25 +0.01    -0.021    21.531
ATOM      7  C   UNL d   1      13.553  14.616  -7.328 -0.21 +0.01    -0.025    21.531
ATOM      8  C   UNL d   1      13.105  14.058  -8.522 -0.17 -0.01    +0.066    21.531
ATOM      9  C   UNL d   1      14.914  14.496  -6.677 -0.20 -0.02    +0.051    21.531
ATOM     10  C   UNL d   1      13.419  12.581 -10.519 -0.13 -0.02    +0.066    21.531
ATOM     11  C   UNL d   1      14.161  11.589 -11.169 -0.17 +0.01    -0.021    21.531
ATOM     12  C   UNL d   1      13.418  11.199 -12.268 -0.25 -0.00    +0.000    21.531
ATOM     13  C   UNL d   1      12.245  12.002 -12.232 -0.18 -0.01    +0.070    21.531
ATOM     14  C   UNL d   1      15.508  11.017 -10.744 -0.32 -0.02    +0.052    21.531
ATOM     15  C   UNL d   1      10.052  12.771 -13.125 +0.01 -0.00    +0.066    21.531
ATOM     16  C   UNL d   1       9.116  12.783 -14.159 -0.09 +0.00    -0.021    21.531
ATOM     17  C   UNL d   1       8.111  13.668 -13.771 -0.18 +0.00    +0.000    21.531
ATOM     18  C   UNL d   1       8.514  14.134 -12.511 -0.20 +0.00    +0.070    21.531
ATOM     19  C   UNL d   1       9.291  11.999 -15.436 -0.11 -0.00    +0.052    21.531
ATOM     20  C   UNL d   1       8.123  15.579 -10.473 -0.18 +0.01    +0.066    21.531
ATOM     21  C   UNL d   1       7.349  16.452  -9.713 -0.17 -0.00    -0.025    21.531
ATOM     22  C   UNL d   1       8.044  16.673  -8.545 -0.24 -0.00    -0.021    21.531
ATOM     23  C   UNL d   1       9.229  15.938  -8.644 -0.25 +0.00    +0.066    21.531
ATOM     24  C   UNL d   1       6.016  17.048 -10.085 -0.15 +0.01    +0.051    21.531
ATOM     25  N   UNL d   1      11.841  14.513  -8.819 -0.12 +0.04    -0.248    21.531
ATOM     26  N   UNL d   1      12.255  12.843 -11.167 -0.12 +0.05    -0.248    21.531
ATOM     27  N   UNL d   1       9.729  13.637 -12.169 -0.15 +0.01    -0.248    21.531
ATOM     28  N   UNL d   1       9.294  15.311  -9.836 -0.15 -0.00    -0.248    21.531
ATOM     29 FE   UNL d   1      10.762  14.086 -10.499 -0.04 -0.00    +0.000    21.531
ATOM     30  O   UNL d   1      12.000  14.993 -10.761 -0.08 -0.00    +0.000    21.531
ATOM     31  O   UNL d   1      10.648  15.280 -11.517 -0.10 -0.00    +0.000    21.531
ATOM     32  C   UNL d   1      12.569  16.210  -5.591 -0.18 -0.04    +0.052    21.531
ATOM     33  C   UNL d   1      12.818  17.683  -5.900 -0.08 -0.08    +0.115    21.531
ATOM     34  C   UNL d   1      13.071  17.929  -7.366 -0.05 -0.04    +0.139    21.531
ATOM     35  O   UNL d   1      14.187  17.746  -7.825 +0.02 +0.18    -0.650    21.531
ATOM     36  O   UNL d   1      12.094  18.375  -8.183 +0.04 +0.12    -0.776    21.531
ATOM     37  H   UNL d   1      11.255  18.705  -7.843 +0.03 -0.02    +0.167    21.531
ATOM     38  C   UNL d   1       7.616  17.592  -7.429 -0.20 +0.02    +0.052    21.531
ATOM     39  C   UNL d   1       7.883  19.061  -7.751 -0.09 +0.02    +0.115    21.531
ATOM     40  C   UNL d   1       9.261  19.503  -7.325 -0.05 +0.01    +0.139    21.531
ATOM     41  O   UNL d   1       9.758  19.043  -6.310 +0.01 +0.00    -0.650    21.531
ATOM     42  O   UNL d   1       9.978  20.363  -8.074 +0.03 +0.02    -0.776    21.531
ATOM     43  H   UNL d   1      10.876  20.156  -8.358 +0.01 -0.01    +0.167    21.531
ATOM     44  C   UNL d   1      13.897  10.124 -13.221 -0.31 -0.00    +0.004    21.531
ATOM     45  C   UNL d   1      13.236   9.044 -13.636 -0.35 -0.00    +0.012    21.531
ATOM     46  C   UNL d   1       6.875  14.138 -14.491 -0.14 +0.00    +0.004    21.531
ATOM     47  C   UNL d   1       5.596  13.867 -14.204 -0.20 +0.00    +0.012    21.531
TER
ENDMDL
MODEL       21
USER    Run = 21
USER    Cluster Rank = 60
USER    Number of conformations in this cluster = 1
USER  
USER    RMSD from reference structure       = 30.720 A
USER  
USER    Estimated Free Energy of Binding    =   -3.29 kcal/mol  [=(1)+(2)+(3)-(4)]
USER    Estimated Inhibition Constant, Ki   =    3.90 mM (millimolar)  [Temperature = 298.15 K]
USER    
USER    (1) Final Intermolecular Energy     =   -6.27 kcal/mol
USER        vdW + Hbond + desolv Energy     =   -6.44 kcal/mol
USER        Electrostatic Energy            =   +0.17 kcal/mol
USER    (2) Final Total Internal Energy     =   -2.44 kcal/mol
USER    (3) Torsional Free Energy           =   +2.98 kcal/mol
USER    (4) Unbound System's Energy  [=(2)] =   -2.44 kcal/mol
USER    
USER    
USER  
USER    DPF = D:/Protein_go_brrr/autodock/final/mut_Y35F/heme_O2/dock.dpf
USER    NEWDPF move	heme_O2_opt.pdbqt
USER    NEWDPF about	8.287000 34.468000 -0.670000
USER    NEWDPF tran0	2.874433 7.673670 -15.200158
USER    NEWDPF axisangle0	-0.663952 0.722163 -0.194034 -147.274416
USER    NEWDPF quaternion0	-0.637060 0.692913 -0.186175 -0.281718
USER    NEWDPF dihe0	10.05 -137.91 -1.10 121.04 47.09 171.79 -165.63 103.58 179.84 174.48 
USER  
USER                              x       y       z    vdW   Elec        q     RMS 
ATOM      1  C   UNL d   1       1.959   9.512 -14.668 -0.24 -0.01    +0.064    30.720
ATOM      2  C   UNL d   1       6.373   8.401 -16.027 -0.15 -0.01    +0.064    30.720
ATOM      3  C   UNL d   1       5.200   3.752 -16.354 -0.24 -0.00    +0.064    30.720
ATOM      4  C   UNL d   1       0.535   4.946 -15.420 -0.14 -0.00    +0.064    30.720
ATOM      5  C   UNL d   1       3.255   9.589 -15.012 -0.28 -0.01    +0.066    30.720
ATOM      6  C   UNL d   1       3.992  10.776 -15.023 -0.26 +0.00    -0.021    30.720
ATOM      7  C   UNL d   1       5.259  10.463 -15.458 -0.20 +0.00    -0.025    30.720
ATOM      8  C   UNL d   1       5.273   9.085 -15.655 -0.18 -0.01    +0.066    30.720
ATOM      9  C   UNL d   1       6.367  11.466 -15.691 -0.15 -0.00    +0.051    30.720
ATOM     10  C   UNL d   1       6.455   6.953 -16.227 -0.24 -0.01    +0.066    30.720
ATOM     11  C   UNL d   1       7.658   6.275 -16.453 -0.20 +0.00    -0.021    30.720
ATOM     12  C   UNL d   1       7.343   4.931 -16.532 -0.22 -0.00    +0.000    30.720
ATOM     13  C   UNL d   1       5.933   4.865 -16.358 -0.25 -0.01    +0.070    30.720
ATOM     14  C   UNL d   1       9.052   6.881 -16.561 -0.18 -0.01    +0.052    30.720
ATOM     15  C   UNL d   1       3.768   3.646 -16.217 -0.18 -0.00    +0.066    30.720
ATOM     16  C   UNL d   1       3.043   2.467 -16.386 -0.13 +0.00    -0.021    30.720
ATOM     17  C   UNL d   1       1.709   2.783 -16.125 -0.12 -0.00    +0.000    30.720
ATOM     18  C   UNL d   1       1.722   4.149 -15.811 +0.06 -0.00    +0.070    30.720
ATOM     19  C   UNL d   1       3.672   1.170 -16.830 -0.08 +0.00    +0.052    30.720
ATOM     20  C   UNL d   1       0.504   6.266 -15.154 -0.21 -0.01    +0.066    30.720
ATOM     21  C   UNL d   1      -0.641   6.960 -14.774 -0.18 +0.00    -0.025    30.720
ATOM     22  C   UNL d   1      -0.249   8.256 -14.529 -0.21 +0.00    -0.021    30.720
ATOM     23  C   UNL d   1       1.124   8.311 -14.787 -0.27 -0.01    +0.066    30.720
ATOM     24  C   UNL d   1      -2.040   6.413 -14.653 -0.12 -0.00    +0.051    30.720
ATOM     25  N   UNL d   1       4.021   8.557 -15.443 -0.17 +0.06    -0.248    30.720
ATOM     26  N   UNL d   1       5.400   6.100 -16.178 -0.19 +0.05    -0.248    30.720
ATOM     27  N   UNL d   1       2.967   4.672 -15.945 -0.12 +0.02    -0.248    30.720
ATOM     28  N   UNL d   1       1.569   7.110 -15.211 -0.17 +0.05    -0.248    30.720
ATOM     29 FE   UNL d   1       3.470   6.606 -15.691 -0.06 -0.00    +0.000    30.720
ATOM     30  O   UNL d   1       3.791   7.343 -17.024 -0.14 -0.00    +0.000    30.720
ATOM     31  O   UNL d   1       2.577   6.342 -16.959 -0.13 -0.00    +0.000    30.720
ATOM     32  C   UNL d   1       3.494  12.175 -14.768 -0.21 -0.00    +0.052    30.720
ATOM     33  C   UNL d   1       3.168  12.932 -16.052 -0.07 -0.00    +0.115    30.720
ATOM     34  C   UNL d   1       3.137  12.028 -17.259 -0.03 -0.01    +0.139    30.720
ATOM     35  O   UNL d   1       4.072  12.037 -18.044 +0.01 +0.03    -0.650    30.720
ATOM     36  O   UNL d   1       2.081  11.226 -17.510 +0.02 +0.04    -0.776    30.720
ATOM     37  H   UNL d   1       1.254  11.302 -17.020 +0.02 -0.01    +0.167    30.720
ATOM     38  C   UNL d   1      -1.160   9.389 -14.131 -0.19 -0.00    +0.052    30.720
ATOM     39  C   UNL d   1      -1.836  10.042 -15.335 -0.05 -0.00    +0.115    30.720
ATOM     40  C   UNL d   1      -0.912  10.970 -16.082 -0.04 -0.01    +0.139    30.720
ATOM     41  O   UNL d   1      -0.195  11.740 -15.463 +0.01 +0.03    -0.650    30.720
ATOM     42  O   UNL d   1      -0.825  10.931 -17.426 +0.01 +0.03    -0.776    30.720
ATOM     43  H   UNL d   1       0.027  10.954 -17.877 +0.01 -0.01    +0.167    30.720
ATOM     44  C   UNL d   1       8.399   3.870 -16.765 -0.22 -0.00    +0.004    30.720
ATOM     45  C   UNL d   1       8.244   2.547 -16.761 -0.18 -0.00    +0.012    30.720
ATOM     46  C   UNL d   1       0.461   1.944 -16.203 -0.08 +0.00    +0.004    30.720
ATOM     47  C   UNL d   1      -0.345   1.565 -15.203 -0.09 +0.00    +0.012    30.720
TER
ENDMDL


AVSFLD: # AVS field file
AVSFLD: #
AVSFLD: # Created by AutoDock
AVSFLD: #
AVSFLD: ndim=2           # number of dimensions in the field
AVSFLD: nspace=1         # number of physical coordinates
AVSFLD: veclen=7         # vector size
AVSFLD: dim1=47          # atoms
AVSFLD: dim2=60          # conformations
AVSFLD: data=Real       # data type (byte,integer,Real,double)
AVSFLD: field=uniform    # field coordinate layout
AVSFLD: label= x y z vdW Elec q RMS
AVSFLD: variable 1 file = D:/Protein_go_brrr/autodock/final/mut_Y35F/heme_O2/dock.dlg.pdb filetype = ascii offset = 5 stride = 12
AVSFLD: variable 2 file = D:/Protein_go_brrr/autodock/final/mut_Y35F/heme_O2/dock.dlg.pdb filetype = ascii offset = 6 stride = 12
AVSFLD: variable 3 file = D:/Protein_go_brrr/autodock/final/mut_Y35F/heme_O2/dock.dlg.pdb filetype = ascii offset = 7 stride = 12
AVSFLD: variable 4 file = D:/Protein_go_brrr/autodock/final/mut_Y35F/heme_O2/dock.dlg.pdb filetype = ascii offset = 8 stride = 12
AVSFLD: variable 5 file = D:/Protein_go_brrr/autodock/final/mut_Y35F/heme_O2/dock.dlg.pdb filetype = ascii offset = 9 stride = 12
AVSFLD: variable 6 file = D:/Protein_go_brrr/autodock/final/mut_Y35F/heme_O2/dock.dlg.pdb filetype = ascii offset = 10 stride = 12
AVSFLD: variable 7 file = D:/Protein_go_brrr/autodock/final/mut_Y35F/heme_O2/dock.dlg.pdb filetype = ascii offset = 11 stride = 12
AVSFLD: # end of file

>>> Closing the docking parameter file (DPF)...
This docking finished at:			11:41 21" p.m., 10/18/2025


________________________________________________________________________________

D:/autodockScripts/autodock4.exe: Successful Completion on "ACER"

Real= 7h 52m 09.10s,  CPU= 1m 25.06s,  System= 50.72s
________________________________________________________________________________

